<?xml version="1.0" encoding="UTF-8"?>

<!-- generated on 2026-03-31 22:25:37 by Eclipse SUMO sumo Version 1.22.0
<sumoConfiguration xmlns:xsi="http://www.w3.org/2001/XMLSchema-instance" xsi:noNamespaceSchemaLocation="http://sumo.dlr.de/xsd/sumoConfiguration.xsd">

    <input>
        <net-file value="osm.net.xml.gz"/>
        <route-files value="osm.passenger.trips.xml"/>
        <additional-files value="osm.poly.xml.gz,output.add.xml"/>
    </input>

    <output>
        <tripinfo-output value="tripinfos.xml"/>
        <statistic-output value="stats.xml"/>
    </output>

    <processing>
        <ignore-route-errors value="true"/>
        <time-to-teleport value="-1"/>
        <waiting-time-memory value="1000"/>
        <tls.actuated.jam-threshold value="30"/>
    </processing>

    <routing>
        <device.rerouting.adaptation-steps value="18"/>
        <device.rerouting.adaptation-interval value="10"/>
    </routing>

    <report>
        <verbose value="true"/>
        <duration-log.statistics value="true"/>
        <no-step-log value="true"/>
    </report>

    <traci_server>
        <remote-port value="51130"/>
    </traci_server>

</sumoConfiguration>
-->

<meandata xmlns:xsi="http://www.w3.org/2001/XMLSchema-instance" xsi:noNamespaceSchemaLocation="http://sumo.dlr.de/xsd/meandata_file.xsd">
    <interval begin="0.00" end="1000.00" id="wizard_example">
        <edge id="-359247809#2" sampledSeconds="750.39" traveltime="6.31" overlapTraveltime="6.70" density="10.87" laneDensity="10.87" occupancy="4.98" waitingTime="0.00" timeLoss="376.58" speed="11.05" speedRelative="0.50" departed="0" arrived="105" entered="115" left="7" laneChangedFrom="0" laneChangedTo="0"/>
        <edge id="-359408253" sampledSeconds="0.00" departed="0" arrived="0" entered="0" left="0" laneChangedFrom="0" laneChangedTo="0"/>
        <edge id="-359408298" sampledSeconds="0.00" departed="0" arrived="0" entered="0" left="0" laneChangedFrom="0" laneChangedTo="0"/>
        <edge id="-563175088" sampledSeconds="0.00" departed="0" arrived="0" entered="0" left="0" laneChangedFrom="0" laneChangedTo="0"/>
        <edge id="-822095302#0" sampledSeconds="0.00" departed="0" arrived="0" entered="0" left="0" laneChangedFrom="0" laneChangedTo="0"/>
        <edge id="-822095302#1" sampledSeconds="0.00" departed="0" arrived="0" entered="0" left="0" laneChangedFrom="0" laneChangedTo="0"/>
        <edge id="-822095302#2" sampledSeconds="0.00" departed="0" arrived="0" entered="0" left="0" laneChangedFrom="0" laneChangedTo="0"/>
        <edge id="1020455379" sampledSeconds="0.00" departed="0" arrived="0" entered="0" left="0" laneChangedFrom="0" laneChangedTo="0"/>
        <edge id="1020455380#0" sampledSeconds="125.89" traveltime="2.09" overlapTraveltime="2.47" density="4.57" laneDensity="4.57" occupancy="1.94" waitingTime="0.00" timeLoss="7.46" speed="13.17" speedRelative="0.95" departed="0" arrived="5" entered="51" left="46" laneChangedFrom="0" laneChangedTo="0"/>
        <edge id="1053267667#1" sampledSeconds="13057.72" traveltime="56.27" overlapTraveltime="57.24" density="98.51" laneDensity="32.84" occupancy="16.28" waitingTime="8294.00" timeLoss="11899.44" speed="2.40" speedRelative="0.09" departed="23" arrived="6" entered="210" left="208" laneChangedFrom="42" laneChangedTo="42"/>
        <edge id="1053267667#1-AddedOnRampEdge" sampledSeconds="1196.18" traveltime="5.53" overlapTraveltime="5.76" density="12.62" laneDensity="3.15" occupancy="1.51" waitingTime="0.00" timeLoss="451.00" speed="17.34" speedRelative="0.62" departed="42" arrived="0" entered="168" left="210" laneChangedFrom="134" laneChangedTo="134"/>
        <edge id="1053267668" sampledSeconds="137.84" traveltime="1.60" overlapTraveltime="1.81" density="3.41" laneDensity="1.14" occupancy="0.53" waitingTime="0.00" timeLoss="12.28" speed="25.13" speedRelative="0.90" departed="86" arrived="0" entered="0" left="86" laneChangedFrom="3" laneChangedTo="3"/>
        <edge id="1053274595#0" sampledSeconds="123.15" traveltime="1.53" overlapTraveltime="1.91" density="6.23" laneDensity="6.23" occupancy="2.72" waitingTime="0.00" timeLoss="9.58" speed="12.94" speedRelative="0.93" departed="81" arrived="0" entered="0" left="81" laneChangedFrom="0" laneChangedTo="0"/>
        <edge id="1053274595#2" sampledSeconds="1036.55" traveltime="12.29" overlapTraveltime="12.66" density="6.51" laneDensity="6.51" occupancy="3.16" waitingTime="0.00" timeLoss="110.14" speed="12.96" speedRelative="0.93" departed="6" arrived="0" entered="77" left="82" laneChangedFrom="0" laneChangedTo="0"/>
        <edge id="1064761335" sampledSeconds="99.63" traveltime="24.52" overlapTraveltime="24.91" density="0.32" laneDensity="0.32" occupancy="0.16" waitingTime="0.00" timeLoss="5.15" speed="12.51" speedRelative="0.90" departed="0" arrived="4" entered="4" left="0" laneChangedFrom="0" laneChangedTo="0"/>
        <edge id="1101055536" sampledSeconds="0.00" departed="0" arrived="0" entered="0" left="0" laneChangedFrom="0" laneChangedTo="0"/>
        <edge id="1125782445#0" sampledSeconds="332.66" traveltime="6.93" overlapTraveltime="7.31" density="3.64" laneDensity="3.64" occupancy="1.74" waitingTime="0.00" timeLoss="19.55" speed="13.19" speedRelative="0.95" departed="0" arrived="46" entered="46" left="0" laneChangedFrom="0" laneChangedTo="0"/>
        <edge id="1150835051" sampledSeconds="0.00" departed="0" arrived="0" entered="0" left="0" laneChangedFrom="0" laneChangedTo="0"/>
        <edge id="1291636131" sampledSeconds="220.12" traveltime="6.49" overlapTraveltime="7.71" density="5.17" laneDensity="5.17" occupancy="2.39" waitingTime="27.00" timeLoss="106.97" speed="6.17" speedRelative="0.44" departed="32" arrived="0" entered="0" left="32" laneChangedFrom="0" laneChangedTo="0"/>
        <edge id="359247809#0" sampledSeconds="49.78" traveltime="6.87" overlapTraveltime="7.21" density="0.72" laneDensity="0.72" occupancy="0.32" waitingTime="0.00" timeLoss="27.99" speed="10.29" speedRelative="0.46" departed="0" arrived="7" entered="7" left="0" laneChangedFrom="0" laneChangedTo="0"/>
        <edge id="359408253" sampledSeconds="0.00" departed="0" arrived="0" entered="0" left="0" laneChangedFrom="0" laneChangedTo="0"/>
        <edge id="359408278" sampledSeconds="0.00" departed="0" arrived="0" entered="0" left="0" laneChangedFrom="0" laneChangedTo="0"/>
        <edge id="359408298" sampledSeconds="0.00" departed="0" arrived="0" entered="0" left="0" laneChangedFrom="0" laneChangedTo="0"/>
        <edge id="362347492" sampledSeconds="1570.72" traveltime="5.15" overlapTraveltime="5.66" density="15.56" laneDensity="5.19" occupancy="2.46" waitingTime="58.00" timeLoss="510.17" speed="18.70" speedRelative="0.67" departed="292" arrived="0" entered="0" left="290" laneChangedFrom="28" laneChangedTo="28"/>
        <edge id="563175146#0" sampledSeconds="2588.09" traveltime="8.63" overlapTraveltime="8.82" density="13.78" laneDensity="4.59" occupancy="2.23" waitingTime="0.00" timeLoss="531.29" speed="21.85" speedRelative="0.79" departed="0" arrived="293" entered="297" left="0" laneChangedFrom="6" laneChangedTo="6"/>
        <edge id="749313693#0" sampledSeconds="8314.29" traveltime="53.39" overlapTraveltime="54.41" density="54.88" laneDensity="18.29" occupancy="9.07" waitingTime="5633.00" timeLoss="7429.67" speed="2.88" speedRelative="0.10" departed="159" arrived="0" entered="0" left="150" laneChangedFrom="43" laneChangedTo="43"/>
        <edge id="749662139" sampledSeconds="801.47" traveltime="2.11" overlapTraveltime="2.67" density="63.91" laneDensity="15.98" occupancy="6.13" waitingTime="191.00" timeLoss="611.58" speed="6.56" speedRelative="0.24" departed="14" arrived="0" entered="290" left="304" laneChangedFrom="21" laneChangedTo="21"/>
        <edge id="749662140#0" sampledSeconds="12096.80" traveltime="37.42" overlapTraveltime="38.33" density="245.87" laneDensity="61.47" occupancy="30.00" waitingTime="8317.00" timeLoss="11477.41" speed="1.41" speedRelative="0.05" departed="21" arrived="0" entered="300" left="310" laneChangedFrom="95" laneChangedTo="95"/>
        <edge id="749988360#0" sampledSeconds="111.61" traveltime="1.39" overlapTraveltime="1.63" density="4.22" laneDensity="1.41" occupancy="0.59" waitingTime="0.00" timeLoss="35.38" speed="19.29" speedRelative="0.69" departed="0" arrived="30" entered="69" left="39" laneChangedFrom="0" laneChangedTo="0"/>
        <edge id="749988360#2" sampledSeconds="122.35" traveltime="2.96" overlapTraveltime="3.15" density="1.75" laneDensity="0.44" occupancy="0.20" waitingTime="0.00" timeLoss="20.01" speed="23.73" speedRelative="0.85" departed="0" arrived="39" entered="39" left="0" laneChangedFrom="0" laneChangedTo="0"/>
        <edge id="757092063" sampledSeconds="695.69" traveltime="2.47" overlapTraveltime="2.70" density="14.75" laneDensity="2.95" occupancy="1.33" waitingTime="0.00" timeLoss="208.94" speed="19.33" speedRelative="0.70" departed="0" arrived="19" entered="259" left="238" laneChangedFrom="58" laneChangedTo="58"/>
        <edge id="757092064#0" sampledSeconds="308.54" traveltime="1.10" overlapTraveltime="1.41" density="19.78" laneDensity="6.59" occupancy="2.57" waitingTime="0.00" timeLoss="144.50" speed="14.65" speedRelative="0.53" departed="14" arrived="3" entered="211" left="221" laneChangedFrom="15" laneChangedTo="15"/>
        <edge id="757092065#0" sampledSeconds="167.89" traveltime="3.97" overlapTraveltime="4.42" density="3.94" laneDensity="1.97" occupancy="0.87" waitingTime="0.00" timeLoss="73.58" speed="10.77" speedRelative="0.48" departed="0" arrived="0" entered="38" left="38" laneChangedFrom="3" laneChangedTo="3"/>
        <edge id="757373594" sampledSeconds="1864.36" traveltime="4.84" overlapTraveltime="5.73" density="155.75" laneDensity="25.96" occupancy="11.10" waitingTime="1040.00" timeLoss="1660.22" speed="2.96" speedRelative="0.11" departed="35" arrived="0" entered="304" left="338" laneChangedFrom="33" laneChangedTo="33"/>
        <edge id="762926802#0" sampledSeconds="0.00" departed="0" arrived="0" entered="0" left="0" laneChangedFrom="0" laneChangedTo="0"/>
        <edge id="822095302#0" sampledSeconds="0.00" departed="0" arrived="0" entered="0" left="0" laneChangedFrom="0" laneChangedTo="0"/>
        <edge id="822095302#1" sampledSeconds="0.00" departed="0" arrived="0" entered="0" left="0" laneChangedFrom="0" laneChangedTo="0"/>
        <edge id="822095302#2" sampledSeconds="0.00" departed="0" arrived="0" entered="0" left="0" laneChangedFrom="0" laneChangedTo="0"/>
        <edge id="841112609" sampledSeconds="0.00" departed="0" arrived="0" entered="0" left="0" laneChangedFrom="0" laneChangedTo="0"/>
        <edge id="885403818#1" sampledSeconds="7682.28" traveltime="25.02" overlapTraveltime="25.87" density="251.96" laneDensity="62.99" occupancy="30.41" waitingTime="5446.00" timeLoss="7297.51" speed="1.37" speedRelative="0.05" departed="10" arrived="16" entered="291" left="283" laneChangedFrom="57" laneChangedTo="57"/>
        <edge id="978400260#0" sampledSeconds="586.73" traveltime="2.27" overlapTraveltime="2.47" density="10.96" laneDensity="3.65" occupancy="1.67" waitingTime="0.00" timeLoss="81.45" speed="23.70" speedRelative="0.85" departed="0" arrived="21" entered="238" left="216" laneChangedFrom="4" laneChangedTo="4"/>
        <edge id="978400260#0-AddedOffRampEdge" sampledSeconds="870.40" traveltime="3.84" overlapTraveltime="4.07" density="9.23" laneDensity="2.31" occupancy="1.09" waitingTime="0.00" timeLoss="80.07" speed="24.43" speedRelative="0.88" departed="0" arrived="24" entered="216" left="190" laneChangedFrom="3" laneChangedTo="3"/>
        <edge id="978400260#2" sampledSeconds="289.80" traveltime="1.92" overlapTraveltime="2.10" density="5.79" laneDensity="1.93" occupancy="0.88" waitingTime="0.00" timeLoss="11.14" speed="26.18" speedRelative="0.94" departed="0" arrived="139" entered="139" left="0" laneChangedFrom="0" laneChangedTo="0"/>
        <edge id="978400303#0" sampledSeconds="4704.24" traveltime="12.11" overlapTraveltime="12.52" density="19.93" laneDensity="4.98" occupancy="2.42" waitingTime="0.00" timeLoss="1355.33" speed="19.25" speedRelative="0.69" departed="8" arrived="30" entered="368" left="345" laneChangedFrom="76" laneChangedTo="76"/>
        <edge id="978400303#4" sampledSeconds="393.70" traveltime="1.54" overlapTraveltime="1.73" density="10.26" laneDensity="2.57" occupancy="1.14" waitingTime="0.00" timeLoss="37.56" speed="25.02" speedRelative="0.90" departed="0" arrived="230" entered="230" left="0" laneChangedFrom="0" laneChangedTo="0"/>
        <edge id="978400306#0" sampledSeconds="311.14" traveltime="1.63" overlapTraveltime="1.84" density="7.72" laneDensity="1.93" occupancy="0.91" waitingTime="0.00" timeLoss="32.24" speed="24.62" speedRelative="0.89" departed="191" arrived="0" entered="0" left="190" laneChangedFrom="9" laneChangedTo="9"/>
        <edge id="978400306#1" sampledSeconds="78.30" traveltime="0.01" overlapTraveltime="0.37" density="391.52" laneDensity="97.88" occupancy="1.91" waitingTime="0.00" timeLoss="38.55" speed="13.94" speedRelative="0.50" departed="21" arrived="0" entered="190" left="211" laneChangedFrom="0" laneChangedTo="0"/>
        <edge id="978400306#2" sampledSeconds="1598.69" traveltime="5.53" overlapTraveltime="5.85" density="15.96" laneDensity="3.99" occupancy="1.90" waitingTime="16.00" timeLoss="551.68" speed="17.97" speedRelative="0.65" departed="34" arrived="0" entered="242" left="272" laneChangedFrom="31" laneChangedTo="31"/>
        <edge id="978400306#2-AddedOffRampEdge" sampledSeconds="5831.17" traveltime="17.18" overlapTraveltime="19.76" density="61.72" laneDensity="12.34" occupancy="5.61" waitingTime="2899.44" timeLoss="4763.67" speed="5.04" speedRelative="0.18" departed="34" arrived="0" entered="271" left="291" laneChangedFrom="35" laneChangedTo="35"/>
    </interval>
</meandata>
