<?xml version="1.0" encoding="UTF-8"?>

<!-- generated on 2026-03-17 20:39:53 by Eclipse SUMO sumo Version 1.22.0
<sumoConfiguration xmlns:xsi="http://www.w3.org/2001/XMLSchema-instance" xsi:noNamespaceSchemaLocation="http://sumo.dlr.de/xsd/sumoConfiguration.xsd">

    <input>
        <net-file value="osm.net.xml.gz"/>
        <route-files value="osm.passenger.trips.xml"/>
        <additional-files value="osm.poly.xml.gz,output.add.xml"/>
    </input>

    <output>
        <tripinfo-output value="tripinfos.xml"/>
        <statistic-output value="stats.xml"/>
    </output>

    <processing>
        <ignore-route-errors value="true"/>
        <time-to-teleport value="-1"/>
        <waiting-time-memory value="1000"/>
        <tls.actuated.jam-threshold value="30"/>
    </processing>

    <routing>
        <device.rerouting.adaptation-steps value="18"/>
        <device.rerouting.adaptation-interval value="10"/>
    </routing>

    <report>
        <verbose value="true"/>
        <duration-log.statistics value="true"/>
        <no-step-log value="true"/>
    </report>

    <traci_server>
        <remote-port value="52880"/>
    </traci_server>

</sumoConfiguration>
-->

<meandata xmlns:xsi="http://www.w3.org/2001/XMLSchema-instance" xsi:noNamespaceSchemaLocation="http://sumo.dlr.de/xsd/meandata_file.xsd">
    <interval begin="0.00" end="3600.00" id="wizard_example">
        <edge id="-359247809#2" sampledSeconds="2355.66" traveltime="6.74" overlapTraveltime="7.46" density="9.48" laneDensity="9.48" occupancy="4.27" waitingTime="0.00" timeLoss="1219.06" speed="9.92" speedRelative="0.45" departed="0" arrived="222" entered="319" left="96" laneChangedFrom="0" laneChangedTo="0"/>
        <edge id="-359408253" sampledSeconds="0.00" departed="0" arrived="0" entered="0" left="0" laneChangedFrom="0" laneChangedTo="0"/>
        <edge id="-359408298" sampledSeconds="0.00" departed="0" arrived="0" entered="0" left="0" laneChangedFrom="0" laneChangedTo="0"/>
        <edge id="-563175088" sampledSeconds="0.00" departed="0" arrived="0" entered="0" left="0" laneChangedFrom="0" laneChangedTo="0"/>
        <edge id="-822095302#0" sampledSeconds="0.00" departed="0" arrived="0" entered="0" left="0" laneChangedFrom="0" laneChangedTo="0"/>
        <edge id="-822095302#1" sampledSeconds="0.00" departed="0" arrived="0" entered="0" left="0" laneChangedFrom="0" laneChangedTo="0"/>
        <edge id="-822095302#2" sampledSeconds="0.00" departed="0" arrived="0" entered="0" left="0" laneChangedFrom="0" laneChangedTo="0"/>
        <edge id="1020455379" sampledSeconds="0.00" departed="0" arrived="0" entered="0" left="0" laneChangedFrom="0" laneChangedTo="0"/>
        <edge id="1020455380#0" sampledSeconds="177.70" traveltime="2.06" overlapTraveltime="2.44" density="1.79" laneDensity="1.79" occupancy="0.76" waitingTime="0.00" timeLoss="8.95" speed="13.33" speedRelative="0.96" departed="0" arrived="9" entered="73" left="64" laneChangedFrom="0" laneChangedTo="0"/>
        <edge id="1053267667#1" sampledSeconds="187632.34" traveltime="6609.93" overlapTraveltime="6853.23" density="393.21" laneDensity="131.07" occupancy="64.85" waitingTime="187230.00" timeLoss="187495.92" speed="0.02" speedRelative="0.00" departed="6" arrived="1" entered="49" left="0" laneChangedFrom="11" laneChangedTo="11"/>
        <edge id="1053267667#1-AddedOnRampEdge" sampledSeconds="169416.33" traveltime="2140.45" overlapTraveltime="2311.08" density="496.36" laneDensity="124.09" occupancy="56.07" waitingTime="168776.00" timeLoss="169153.86" speed="0.04" speedRelative="0.00" departed="19" arrived="0" entered="82" left="52" laneChangedFrom="53" laneChangedTo="53"/>
        <edge id="1053267668" sampledSeconds="43673.31" traveltime="1006.69" overlapTraveltime="1010.57" density="300.43" laneDensity="100.14" occupancy="50.06" waitingTime="43531.00" timeLoss="43602.63" speed="0.04" speedRelative="0.00" departed="57" arrived="0" entered="0" left="42" laneChangedFrom="3" laneChangedTo="3"/>
        <edge id="1053274595#0" sampledSeconds="8785.97" traveltime="129.11" overlapTraveltime="181.90" density="123.45" laneDensity="123.45" occupancy="42.10" waitingTime="8687.00" timeLoss="8701.32" speed="0.14" speedRelative="0.01" departed="62" arrived="0" entered="0" left="60" laneChangedFrom="0" laneChangedTo="0"/>
        <edge id="1053274595#2" sampledSeconds="66855.41" traveltime="1315.34" overlapTraveltime="1324.94" density="116.69" laneDensity="116.69" occupancy="56.10" waitingTime="66162.00" timeLoss="66281.22" speed="0.12" speedRelative="0.01" departed="5" arrived="0" entered="57" left="40" laneChangedFrom="0" laneChangedTo="0"/>
        <edge id="1064761335" sampledSeconds="45.79" traveltime="22.54" overlapTraveltime="22.90" density="0.04" laneDensity="0.04" occupancy="0.02" waitingTime="0.00" timeLoss="2.20" speed="13.61" speedRelative="0.98" departed="0" arrived="2" entered="2" left="0" laneChangedFrom="0" laneChangedTo="0"/>
        <edge id="1101055536" sampledSeconds="0.00" departed="0" arrived="0" entered="0" left="0" laneChangedFrom="0" laneChangedTo="0"/>
        <edge id="1125782445#0" sampledSeconds="456.91" traveltime="6.85" overlapTraveltime="7.22" density="1.39" laneDensity="1.39" occupancy="0.66" waitingTime="0.00" timeLoss="24.15" speed="13.34" speedRelative="0.96" departed="0" arrived="64" entered="64" left="0" laneChangedFrom="0" laneChangedTo="0"/>
        <edge id="1150835051" sampledSeconds="0.00" departed="0" arrived="0" entered="0" left="0" laneChangedFrom="0" laneChangedTo="0"/>
        <edge id="1291636131" sampledSeconds="15409.14" traveltime="1094.24" overlapTraveltime="1104.16" density="100.59" laneDensity="100.59" occupancy="50.27" waitingTime="15305.00" timeLoss="15353.74" speed="0.04" speedRelative="0.00" departed="18" arrived="0" entered="0" left="13" laneChangedFrom="0" laneChangedTo="0"/>
        <edge id="359247809#0" sampledSeconds="685.39" traveltime="6.88" overlapTraveltime="7.20" density="2.75" laneDensity="2.75" occupancy="1.23" waitingTime="0.00" timeLoss="370.22" speed="10.30" speedRelative="0.46" departed="0" arrived="96" entered="96" left="0" laneChangedFrom="0" laneChangedTo="0"/>
        <edge id="359408253" sampledSeconds="0.00" departed="0" arrived="0" entered="0" left="0" laneChangedFrom="0" laneChangedTo="0"/>
        <edge id="359408278" sampledSeconds="0.00" departed="0" arrived="0" entered="0" left="0" laneChangedFrom="0" laneChangedTo="0"/>
        <edge id="359408298" sampledSeconds="0.00" departed="0" arrived="0" entered="0" left="0" laneChangedFrom="0" laneChangedTo="0"/>
        <edge id="362347492" sampledSeconds="3892.90" traveltime="3.94" overlapTraveltime="4.16" density="10.72" laneDensity="3.57" occupancy="1.74" waitingTime="3.00" timeLoss="307.22" speed="25.47" speedRelative="0.92" departed="984" arrived="0" entered="0" left="983" laneChangedFrom="26" laneChangedTo="26"/>
        <edge id="563175146#0" sampledSeconds="1350.18" traveltime="9.01" overlapTraveltime="9.20" density="2.00" laneDensity="0.67" occupancy="0.32" waitingTime="0.00" timeLoss="317.08" speed="20.95" speedRelative="0.75" departed="0" arrived="147" entered="147" left="0" laneChangedFrom="0" laneChangedTo="0"/>
        <edge id="749313693#0" sampledSeconds="136633.56" traveltime="296.27" overlapTraveltime="297.94" density="250.52" laneDensity="83.51" occupancy="41.67" waitingTime="86855.00" timeLoss="133986.04" speed="0.53" speedRelative="0.02" departed="503" arrived="0" entered="0" left="446" laneChangedFrom="101" laneChangedTo="101"/>
        <edge id="749662139" sampledSeconds="1123.78" traveltime="0.81" overlapTraveltime="1.09" density="24.89" laneDensity="6.22" occupancy="2.38" waitingTime="71.00" timeLoss="472.47" speed="16.02" speedRelative="0.58" departed="63" arrived="0" entered="983" left="1045" laneChangedFrom="8" laneChangedTo="8"/>
        <edge id="749662140#0" sampledSeconds="8240.98" traveltime="5.84" overlapTraveltime="7.01" density="46.53" laneDensity="11.63" occupancy="5.27" waitingTime="535.00" timeLoss="5819.20" speed="7.73" speedRelative="0.28" departed="61" arrived="0" entered="1122" left="1180" laneChangedFrom="237" laneChangedTo="237"/>
        <edge id="749988360#0" sampledSeconds="0.00" departed="0" arrived="0" entered="0" left="0" laneChangedFrom="0" laneChangedTo="0"/>
        <edge id="749988360#2" sampledSeconds="0.00" departed="0" arrived="0" entered="0" left="0" laneChangedFrom="0" laneChangedTo="0"/>
        <edge id="757092063" sampledSeconds="1472.76" traveltime="2.61" overlapTraveltime="2.85" density="8.67" laneDensity="1.73" occupancy="0.78" waitingTime="0.00" timeLoss="494.86" speed="18.31" speedRelative="0.66" departed="0" arrived="0" entered="517" left="517" laneChangedFrom="58" laneChangedTo="58"/>
        <edge id="757092064#0" sampledSeconds="842.71" traveltime="1.42" overlapTraveltime="1.79" density="15.01" laneDensity="5.00" occupancy="1.94" waitingTime="0.00" timeLoss="489.88" speed="11.50" speedRelative="0.41" departed="36" arrived="0" entered="445" left="481" laneChangedFrom="87" laneChangedTo="87"/>
        <edge id="757092065#0" sampledSeconds="151.68" traveltime="3.78" overlapTraveltime="4.21" density="0.99" laneDensity="0.49" occupancy="0.22" waitingTime="0.00" timeLoss="66.65" speed="11.29" speedRelative="0.51" departed="0" arrived="0" entered="36" left="36" laneChangedFrom="1" laneChangedTo="1"/>
        <edge id="757373594" sampledSeconds="1929.16" traveltime="1.36" overlapTraveltime="1.72" density="44.77" laneDensity="7.46" occupancy="3.01" waitingTime="479.00" timeLoss="1235.10" speed="9.88" speedRelative="0.36" departed="113" arrived="0" entered="1045" left="1158" laneChangedFrom="32" laneChangedTo="32"/>
        <edge id="762926802#0" sampledSeconds="0.00" departed="0" arrived="0" entered="0" left="0" laneChangedFrom="0" laneChangedTo="0"/>
        <edge id="822095302#0" sampledSeconds="0.00" departed="0" arrived="0" entered="0" left="0" laneChangedFrom="0" laneChangedTo="0"/>
        <edge id="822095302#1" sampledSeconds="0.00" departed="0" arrived="0" entered="0" left="0" laneChangedFrom="0" laneChangedTo="0"/>
        <edge id="822095302#2" sampledSeconds="0.00" departed="0" arrived="0" entered="0" left="0" laneChangedFrom="0" laneChangedTo="0"/>
        <edge id="841112609" sampledSeconds="0.00" departed="0" arrived="0" entered="0" left="0" laneChangedFrom="0" laneChangedTo="0"/>
        <edge id="885403818#1" sampledSeconds="56805.06" traveltime="3462.42" overlapTraveltime="3767.34" density="517.52" laneDensity="129.38" occupancy="64.68" waitingTime="56643.00" timeLoss="56785.50" speed="0.01" speedRelative="0.00" departed="1" arrived="0" entered="22" left="7" laneChangedFrom="6" laneChangedTo="6"/>
        <edge id="978400260#0" sampledSeconds="1292.04" traveltime="2.30" overlapTraveltime="2.50" density="6.70" laneDensity="2.23" occupancy="1.02" waitingTime="0.00" timeLoss="195.47" speed="23.41" speedRelative="0.84" departed="0" arrived="17" entered="517" left="500" laneChangedFrom="12" laneChangedTo="12"/>
        <edge id="978400260#0-AddedOffRampEdge" sampledSeconds="1962.81" traveltime="3.72" overlapTraveltime="3.94" density="5.78" laneDensity="1.44" occupancy="0.68" waitingTime="0.00" timeLoss="141.51" speed="25.25" speedRelative="0.91" departed="0" arrived="22" entered="500" left="476" laneChangedFrom="9" laneChangedTo="9"/>
        <edge id="978400260#2" sampledSeconds="827.15" traveltime="1.89" overlapTraveltime="2.07" density="4.59" laneDensity="1.53" occupancy="0.70" waitingTime="0.00" timeLoss="28.14" speed="26.56" speedRelative="0.96" departed="0" arrived="403" entered="403" left="0" laneChangedFrom="6" laneChangedTo="6"/>
        <edge id="978400303#0" sampledSeconds="12204.13" traveltime="10.96" overlapTraveltime="11.36" density="14.36" laneDensity="3.59" occupancy="1.74" waitingTime="0.00" timeLoss="2572.05" speed="21.21" speedRelative="0.76" departed="41" arrived="57" entered="1036" left="1018" laneChangedFrom="45" laneChangedTo="45"/>
        <edge id="978400303#4" sampledSeconds="1167.69" traveltime="1.50" overlapTraveltime="1.69" density="8.46" laneDensity="2.11" occupancy="0.94" waitingTime="0.00" timeLoss="79.40" speed="25.65" speedRelative="0.92" departed="0" arrived="699" entered="699" left="0" laneChangedFrom="0" laneChangedTo="0"/>
        <edge id="978400306#0" sampledSeconds="61609.39" traveltime="557.64" overlapTraveltime="700.89" density="424.87" laneDensity="106.22" occupancy="51.26" waitingTime="61358.00" timeLoss="61465.16" speed="0.06" speedRelative="0.00" departed="109" arrived="0" entered="0" left="93" laneChangedFrom="15" laneChangedTo="15"/>
        <edge id="978400306#1" sampledSeconds="12598.54" traveltime="0.01" overlapTraveltime="134.18" density="533.33" laneDensity="133.33" occupancy="87.48" waitingTime="12551.00" timeLoss="12580.86" speed="0.04" speedRelative="0.00" departed="10" arrived="0" entered="85" left="95" laneChangedFrom="0" laneChangedTo="0"/>
        <edge id="978400306#2" sampledSeconds="182071.12" traveltime="1774.19" overlapTraveltime="1941.33" density="504.84" laneDensity="126.21" occupancy="61.02" waitingTime="181287.00" timeLoss="181712.71" speed="0.05" speedRelative="0.00" departed="19" arrived="0" entered="104" left="71" laneChangedFrom="33" laneChangedTo="33"/>
        <edge id="978400306#2-AddedOffRampEdge" sampledSeconds="191761.48" traveltime="3541.93" overlapTraveltime="3924.75" density="563.79" laneDensity="112.76" occupancy="49.96" waitingTime="191296.83" timeLoss="191586.02" speed="0.03" speedRelative="0.00" departed="11" arrived="0" entered="67" left="26" laneChangedFrom="16" laneChangedTo="16"/>
    </interval>
</meandata>
