<?xml version="1.0" encoding="UTF-8"?>

<!-- generated on 2026-03-22 21:35:08 by Eclipse SUMO sumo Version 1.22.0
<sumoConfiguration xmlns:xsi="http://www.w3.org/2001/XMLSchema-instance" xsi:noNamespaceSchemaLocation="http://sumo.dlr.de/xsd/sumoConfiguration.xsd">

    <input>
        <net-file value="osm.net.xml.gz"/>
        <route-files value="osm.passenger.trips.xml"/>
        <additional-files value="osm.poly.xml.gz,output.add.xml"/>
    </input>

    <output>
        <tripinfo-output value="tripinfos.xml"/>
        <statistic-output value="stats.xml"/>
    </output>

    <processing>
        <ignore-route-errors value="true"/>
        <time-to-teleport value="-1"/>
        <waiting-time-memory value="1000"/>
        <tls.actuated.jam-threshold value="30"/>
    </processing>

    <routing>
        <device.rerouting.adaptation-steps value="18"/>
        <device.rerouting.adaptation-interval value="10"/>
    </routing>

    <report>
        <verbose value="true"/>
        <duration-log.statistics value="true"/>
        <no-step-log value="true"/>
    </report>

    <traci_server>
        <remote-port value="54162"/>
    </traci_server>

</sumoConfiguration>
-->

<meandata xmlns:xsi="http://www.w3.org/2001/XMLSchema-instance" xsi:noNamespaceSchemaLocation="http://sumo.dlr.de/xsd/meandata_file.xsd">
    <interval begin="0.00" end="1000.00" id="wizard_example">
        <edge id="-359247809#2" sampledSeconds="497.28" traveltime="6.09" overlapTraveltime="6.51" density="7.20" laneDensity="7.20" occupancy="3.28" waitingTime="0.00" timeLoss="241.78" speed="11.37" speedRelative="0.51" departed="0" arrived="69" entered="78" left="7" laneChangedFrom="0" laneChangedTo="0"/>
        <edge id="-359408253" sampledSeconds="0.00" departed="0" arrived="0" entered="0" left="0" laneChangedFrom="0" laneChangedTo="0"/>
        <edge id="-359408298" sampledSeconds="0.00" departed="0" arrived="0" entered="0" left="0" laneChangedFrom="0" laneChangedTo="0"/>
        <edge id="-563175088" sampledSeconds="0.00" departed="0" arrived="0" entered="0" left="0" laneChangedFrom="0" laneChangedTo="0"/>
        <edge id="-822095302#0" sampledSeconds="0.00" departed="0" arrived="0" entered="0" left="0" laneChangedFrom="0" laneChangedTo="0"/>
        <edge id="-822095302#1" sampledSeconds="0.00" departed="0" arrived="0" entered="0" left="0" laneChangedFrom="0" laneChangedTo="0"/>
        <edge id="-822095302#2" sampledSeconds="0.00" departed="0" arrived="0" entered="0" left="0" laneChangedFrom="0" laneChangedTo="0"/>
        <edge id="1020455379" sampledSeconds="0.00" departed="0" arrived="0" entered="0" left="0" laneChangedFrom="0" laneChangedTo="0"/>
        <edge id="1020455380#0" sampledSeconds="115.23" traveltime="2.08" overlapTraveltime="2.45" density="4.19" laneDensity="4.19" occupancy="1.77" waitingTime="0.00" timeLoss="6.07" speed="13.26" speedRelative="0.95" departed="0" arrived="4" entered="47" left="43" laneChangedFrom="0" laneChangedTo="0"/>
        <edge id="1053267667#1" sampledSeconds="4980.35" traveltime="20.70" overlapTraveltime="21.59" density="37.57" laneDensity="12.52" occupancy="6.12" waitingTime="2002.00" timeLoss="3807.98" speed="6.37" speedRelative="0.23" departed="23" arrived="6" entered="210" left="218" laneChangedFrom="31" laneChangedTo="31"/>
        <edge id="1053267667#1-AddedOnRampEdge" sampledSeconds="1199.10" traveltime="5.55" overlapTraveltime="5.77" density="12.65" laneDensity="3.16" occupancy="1.52" waitingTime="0.00" timeLoss="453.81" speed="17.30" speedRelative="0.62" departed="42" arrived="0" entered="168" left="210" laneChangedFrom="132" laneChangedTo="132"/>
        <edge id="1053267668" sampledSeconds="139.40" traveltime="1.62" overlapTraveltime="1.83" density="3.45" laneDensity="1.15" occupancy="0.54" waitingTime="0.00" timeLoss="13.83" speed="24.85" speedRelative="0.89" departed="86" arrived="0" entered="0" left="86" laneChangedFrom="4" laneChangedTo="4"/>
        <edge id="1053274595#0" sampledSeconds="122.51" traveltime="1.52" overlapTraveltime="1.90" density="6.20" laneDensity="6.20" occupancy="2.71" waitingTime="0.00" timeLoss="8.94" speed="13.00" speedRelative="0.94" departed="81" arrived="0" entered="0" left="81" laneChangedFrom="0" laneChangedTo="0"/>
        <edge id="1053274595#2" sampledSeconds="1034.07" traveltime="12.27" overlapTraveltime="12.63" density="6.50" laneDensity="6.50" occupancy="3.16" waitingTime="0.00" timeLoss="107.50" speed="13.00" speedRelative="0.94" departed="6" arrived="0" entered="77" left="82" laneChangedFrom="0" laneChangedTo="0"/>
        <edge id="1064761335" sampledSeconds="98.87" traveltime="24.43" overlapTraveltime="24.80" density="0.32" laneDensity="0.32" occupancy="0.16" waitingTime="0.00" timeLoss="4.79" speed="12.56" speedRelative="0.90" departed="0" arrived="4" entered="4" left="0" laneChangedFrom="0" laneChangedTo="0"/>
        <edge id="1101055536" sampledSeconds="0.00" departed="0" arrived="0" entered="0" left="0" laneChangedFrom="0" laneChangedTo="0"/>
        <edge id="1125782445#0" sampledSeconds="307.51" traveltime="6.87" overlapTraveltime="7.24" density="3.36" laneDensity="3.36" occupancy="1.61" waitingTime="0.00" timeLoss="15.99" speed="13.32" speedRelative="0.96" departed="0" arrived="43" entered="43" left="0" laneChangedFrom="0" laneChangedTo="0"/>
        <edge id="1150835051" sampledSeconds="0.00" departed="0" arrived="0" entered="0" left="0" laneChangedFrom="0" laneChangedTo="0"/>
        <edge id="1291636131" sampledSeconds="217.41" traveltime="6.32" overlapTraveltime="7.61" density="5.11" laneDensity="5.11" occupancy="2.35" waitingTime="27.00" timeLoss="103.71" speed="6.25" speedRelative="0.45" departed="32" arrived="0" entered="0" left="32" laneChangedFrom="0" laneChangedTo="0"/>
        <edge id="359247809#0" sampledSeconds="50.73" traveltime="7.01" overlapTraveltime="7.35" density="0.73" laneDensity="0.73" occupancy="0.33" waitingTime="0.00" timeLoss="28.99" speed="10.08" speedRelative="0.45" departed="0" arrived="7" entered="7" left="0" laneChangedFrom="0" laneChangedTo="0"/>
        <edge id="359408253" sampledSeconds="0.00" departed="0" arrived="0" entered="0" left="0" laneChangedFrom="0" laneChangedTo="0"/>
        <edge id="359408278" sampledSeconds="0.00" departed="0" arrived="0" entered="0" left="0" laneChangedFrom="0" laneChangedTo="0"/>
        <edge id="359408298" sampledSeconds="0.00" departed="0" arrived="0" entered="0" left="0" laneChangedFrom="0" laneChangedTo="0"/>
        <edge id="362347492" sampledSeconds="22507.87" traveltime="99.53" overlapTraveltime="108.35" density="223.03" laneDensity="74.34" occupancy="35.68" waitingTime="15251.00" timeLoss="21718.68" speed="0.98" speedRelative="0.04" departed="237" arrived="0" entered="0" left="202" laneChangedFrom="39" laneChangedTo="39"/>
        <edge id="563175146#0" sampledSeconds="2374.35" traveltime="8.69" overlapTraveltime="8.89" density="12.64" laneDensity="4.21" occupancy="2.05" waitingTime="0.00" timeLoss="498.56" speed="21.69" speedRelative="0.78" departed="0" arrived="266" entered="268" left="0" laneChangedFrom="11" laneChangedTo="11"/>
        <edge id="749313693#0" sampledSeconds="14228.87" traveltime="94.93" overlapTraveltime="95.96" density="93.92" laneDensity="31.31" occupancy="15.60" waitingTime="11171.00" timeLoss="13373.10" speed="1.63" speedRelative="0.06" departed="159" arrived="0" entered="0" left="138" laneChangedFrom="44" laneChangedTo="44"/>
        <edge id="749662139" sampledSeconds="7125.20" traveltime="22.18" overlapTraveltime="35.17" density="533.33" laneDensity="133.33" occupancy="37.82" waitingTime="5780.00" timeLoss="6997.76" speed="0.50" speedRelative="0.02" departed="12" arrived="0" entered="199" left="204" laneChangedFrom="17" laneChangedTo="17"/>
        <edge id="749662140#0" sampledSeconds="20935.70" traveltime="109.50" overlapTraveltime="111.20" density="425.52" laneDensity="106.38" occupancy="52.30" waitingTime="16649.00" timeLoss="20568.39" speed="0.49" speedRelative="0.02" departed="20" arrived="0" entered="183" left="177" laneChangedFrom="25" laneChangedTo="25"/>
        <edge id="749988360#0" sampledSeconds="110.02" traveltime="1.37" overlapTraveltime="1.61" density="4.16" laneDensity="1.39" occupancy="0.58" waitingTime="0.00" timeLoss="33.82" speed="19.57" speedRelative="0.70" departed="0" arrived="30" entered="70" left="39" laneChangedFrom="0" laneChangedTo="0"/>
        <edge id="749988360#2" sampledSeconds="122.21" traveltime="2.96" overlapTraveltime="3.16" density="1.75" laneDensity="0.44" occupancy="0.20" waitingTime="0.00" timeLoss="20.07" speed="23.71" speedRelative="0.85" departed="0" arrived="39" entered="39" left="0" laneChangedFrom="0" laneChangedTo="0"/>
        <edge id="757092063" sampledSeconds="564.65" traveltime="2.50" overlapTraveltime="2.74" density="11.97" laneDensity="2.39" occupancy="1.08" waitingTime="0.00" timeLoss="175.51" speed="19.03" speedRelative="0.68" departed="0" arrived="14" entered="206" left="192" laneChangedFrom="42" laneChangedTo="42"/>
        <edge id="757092064#0" sampledSeconds="261.41" traveltime="1.16" overlapTraveltime="1.48" density="16.76" laneDensity="5.59" occupancy="2.19" waitingTime="0.00" timeLoss="129.14" speed="13.92" speedRelative="0.50" departed="14" arrived="1" entered="167" left="180" laneChangedFrom="17" laneChangedTo="17"/>
        <edge id="757092065#0" sampledSeconds="110.03" traveltime="3.78" overlapTraveltime="4.23" density="2.58" laneDensity="1.29" occupancy="0.57" waitingTime="0.00" timeLoss="44.77" speed="11.24" speedRelative="0.51" departed="0" arrived="0" entered="26" left="26" laneChangedFrom="2" laneChangedTo="2"/>
        <edge id="757373594" sampledSeconds="6372.45" traveltime="29.54" overlapTraveltime="30.71" density="532.37" laneDensity="88.73" occupancy="37.13" waitingTime="5217.00" timeLoss="6242.90" speed="0.55" speedRelative="0.02" departed="18" arrived="0" entered="200" left="209" laneChangedFrom="15" laneChangedTo="15"/>
        <edge id="762926802#0" sampledSeconds="0.00" departed="0" arrived="0" entered="0" left="0" laneChangedFrom="0" laneChangedTo="0"/>
        <edge id="822095302#0" sampledSeconds="0.00" departed="0" arrived="0" entered="0" left="0" laneChangedFrom="0" laneChangedTo="0"/>
        <edge id="822095302#1" sampledSeconds="0.00" departed="0" arrived="0" entered="0" left="0" laneChangedFrom="0" laneChangedTo="0"/>
        <edge id="822095302#2" sampledSeconds="0.00" departed="0" arrived="0" entered="0" left="0" laneChangedFrom="0" laneChangedTo="0"/>
        <edge id="841112609" sampledSeconds="0.00" departed="0" arrived="0" entered="0" left="0" laneChangedFrom="0" laneChangedTo="0"/>
        <edge id="885403818#1" sampledSeconds="13817.01" traveltime="57.46" overlapTraveltime="58.76" density="453.17" laneDensity="113.29" occupancy="55.25" waitingTime="11203.00" timeLoss="13512.11" speed="0.60" speedRelative="0.02" departed="5" arrived="10" entered="239" left="218" laneChangedFrom="9" laneChangedTo="9"/>
        <edge id="978400260#0" sampledSeconds="478.68" traveltime="2.29" overlapTraveltime="2.49" density="8.94" laneDensity="2.98" occupancy="1.36" waitingTime="0.00" timeLoss="69.77" speed="23.47" speedRelative="0.84" departed="0" arrived="13" entered="192" left="179" laneChangedFrom="1" laneChangedTo="1"/>
        <edge id="978400260#0-AddedOffRampEdge" sampledSeconds="730.33" traveltime="3.86" overlapTraveltime="4.09" density="7.74" laneDensity="1.94" occupancy="0.92" waitingTime="0.00" timeLoss="68.17" speed="24.27" speedRelative="0.87" departed="0" arrived="15" entered="179" left="163" laneChangedFrom="1" laneChangedTo="1"/>
        <edge id="978400260#2" sampledSeconds="240.83" traveltime="1.92" overlapTraveltime="2.11" density="4.81" laneDensity="1.60" occupancy="0.73" waitingTime="0.00" timeLoss="9.63" speed="26.14" speedRelative="0.94" departed="0" arrived="115" entered="116" left="0" laneChangedFrom="1" laneChangedTo="1"/>
        <edge id="978400303#0" sampledSeconds="3021.92" traveltime="11.72" overlapTraveltime="12.14" density="12.80" laneDensity="3.20" occupancy="1.55" waitingTime="0.00" timeLoss="816.68" speed="19.85" speedRelative="0.71" departed="8" arrived="26" entered="242" left="223" laneChangedFrom="56" laneChangedTo="56"/>
        <edge id="978400303#4" sampledSeconds="248.34" traveltime="1.54" overlapTraveltime="1.74" density="6.47" laneDensity="1.62" occupancy="0.72" waitingTime="0.00" timeLoss="26.35" speed="24.96" speedRelative="0.90" departed="0" arrived="145" entered="145" left="0" laneChangedFrom="4" laneChangedTo="4"/>
        <edge id="978400306#0" sampledSeconds="641.25" traveltime="2.84" overlapTraveltime="3.80" density="15.92" laneDensity="3.98" occupancy="1.72" waitingTime="251.00" timeLoss="362.73" speed="11.93" speedRelative="0.43" departed="191" arrived="0" entered="0" left="190" laneChangedFrom="17" laneChangedTo="17"/>
        <edge id="978400306#1" sampledSeconds="155.32" traveltime="0.01" overlapTraveltime="0.75" density="533.33" laneDensity="133.33" occupancy="3.76" waitingTime="36.00" timeLoss="115.89" speed="6.97" speedRelative="0.25" departed="20" arrived="0" entered="190" left="210" laneChangedFrom="0" laneChangedTo="0"/>
        <edge id="978400306#2" sampledSeconds="10725.41" traveltime="35.96" overlapTraveltime="41.21" density="107.06" laneDensity="26.77" occupancy="12.86" waitingTime="5717.00" timeLoss="9728.08" speed="2.55" speedRelative="0.09" departed="29" arrived="0" entered="240" left="255" laneChangedFrom="94" laneChangedTo="94"/>
        <edge id="978400306#2-AddedOffRampEdge" sampledSeconds="34958.26" traveltime="123.09" overlapTraveltime="134.79" density="370.01" laneDensity="74.00" occupancy="34.02" waitingTime="24611.74" timeLoss="34019.65" speed="0.74" speedRelative="0.03" departed="19" arrived="0" entered="253" left="243" laneChangedFrom="42" laneChangedTo="42"/>
    </interval>
</meandata>
