<?xml version="1.0" encoding="UTF-8"?>

<!-- generated on 2026-03-13 16:06:05 by Eclipse SUMO GUI Version 1.24.0
<sumoConfiguration xmlns:xsi="http://www.w3.org/2001/XMLSchema-instance" xsi:noNamespaceSchemaLocation="http://sumo.dlr.de/xsd/sumoConfiguration.xsd">

    <input>
        <net-file value="osm.net.xml.gz"/>
        <route-files value="osm.passenger.trips.xml"/>
        <additional-files value="osm.poly.xml.gz,output.add.xml"/>
    </input>

    <output>
        <tripinfo-output value="tripinfos.xml"/>
        <statistic-output value="stats.xml"/>
    </output>

    <processing>
        <ignore-route-errors value="true"/>
        <tls.actuated.jam-threshold value="30"/>
    </processing>

    <routing>
        <device.rerouting.adaptation-steps value="18"/>
        <device.rerouting.adaptation-interval value="10"/>
    </routing>

    <report>
        <verbose value="true"/>
        <duration-log.statistics value="true"/>
        <no-step-log value="true"/>
    </report>

</sumoConfiguration>
-->

<meandata xmlns:xsi="http://www.w3.org/2001/XMLSchema-instance" xsi:noNamespaceSchemaLocation="http://sumo.dlr.de/xsd/meandata_file.xsd">
    <interval begin="0.00" end="3600.00" id="wizard_example">
        <edge id="-359247809#2" sampledSeconds="3189.75" traveltime="7.30" overlapTraveltime="7.95" density="12.83" laneDensity="12.83" occupancy="5.85" waitingTime="0.00" timeLoss="1748.31" speed="9.31" speedRelative="0.42" departed="0" arrived="307" entered="406" left="96" laneChangedFrom="0" laneChangedTo="0"/>
        <edge id="-359408253" sampledSeconds="0.00" departed="0" arrived="0" entered="0" left="0" laneChangedFrom="0" laneChangedTo="0"/>
        <edge id="-359408298" sampledSeconds="0.00" departed="0" arrived="0" entered="0" left="0" laneChangedFrom="0" laneChangedTo="0"/>
        <edge id="-563175088" sampledSeconds="0.00" departed="0" arrived="0" entered="0" left="0" laneChangedFrom="0" laneChangedTo="0"/>
        <edge id="-822095302#0" sampledSeconds="0.00" departed="0" arrived="0" entered="0" left="0" laneChangedFrom="0" laneChangedTo="0"/>
        <edge id="-822095302#1" sampledSeconds="0.00" departed="0" arrived="0" entered="0" left="0" laneChangedFrom="0" laneChangedTo="0"/>
        <edge id="-822095302#2" sampledSeconds="0.00" departed="0" arrived="0" entered="0" left="0" laneChangedFrom="0" laneChangedTo="0"/>
        <edge id="1020455379" sampledSeconds="0.00" departed="0" arrived="0" entered="0" left="0" laneChangedFrom="0" laneChangedTo="0"/>
        <edge id="1020455380#0" sampledSeconds="467.46" traveltime="2.13" overlapTraveltime="2.52" density="4.72" laneDensity="4.72" occupancy="2.00" waitingTime="0.00" timeLoss="27.38" speed="12.91" speedRelative="0.93" departed="0" arrived="28" entered="187" left="158" laneChangedFrom="0" laneChangedTo="0"/>
        <edge id="1053267667#1" sampledSeconds="40157.70" traveltime="45.94" overlapTraveltime="46.57" density="84.16" laneDensity="28.05" occupancy="13.91" waitingTime="27687.00" timeLoss="35713.70" speed="2.95" speedRelative="0.11" departed="75" arrived="26" entered="795" left="823" laneChangedFrom="127" laneChangedTo="127"/>
        <edge id="1053267667#1-AddedOnRampEdge" sampledSeconds="4505.27" traveltime="5.44" overlapTraveltime="5.70" density="13.20" laneDensity="3.30" occupancy="1.57" waitingTime="92.00" timeLoss="1645.17" speed="17.50" speedRelative="0.63" departed="112" arrived="0" entered="685" left="795" laneChangedFrom="503" laneChangedTo="503"/>
        <edge id="1053267668" sampledSeconds="611.34" traveltime="1.63" overlapTraveltime="1.83" density="4.21" laneDensity="1.40" occupancy="0.66" waitingTime="0.00" timeLoss="60.03" speed="24.77" speedRelative="0.89" departed="376" arrived="0" entered="0" left="376" laneChangedFrom="4" laneChangedTo="4"/>
        <edge id="1053274595#0" sampledSeconds="467.04" traveltime="1.57" overlapTraveltime="1.96" density="6.56" laneDensity="6.56" occupancy="2.87" waitingTime="0.00" timeLoss="39.77" speed="12.63" speedRelative="0.91" departed="300" arrived="0" entered="0" left="300" laneChangedFrom="0" laneChangedTo="0"/>
        <edge id="1053274595#2" sampledSeconds="4019.61" traveltime="12.62" overlapTraveltime="13.00" density="7.02" laneDensity="7.02" occupancy="3.41" waitingTime="0.00" timeLoss="457.90" speed="12.63" speedRelative="0.91" departed="28" arrived="0" entered="283" left="309" laneChangedFrom="0" laneChangedTo="0"/>
        <edge id="1064761335" sampledSeconds="394.10" traveltime="22.91" overlapTraveltime="23.29" density="0.36" laneDensity="0.36" occupancy="0.18" waitingTime="0.00" timeLoss="18.02" speed="13.38" speedRelative="0.96" departed="0" arrived="17" entered="17" left="0" laneChangedFrom="0" laneChangedTo="0"/>
        <edge id="1101055536" sampledSeconds="0.00" departed="0" arrived="0" entered="0" left="0" laneChangedFrom="0" laneChangedTo="0"/>
        <edge id="1125782445#0" sampledSeconds="1156.84" traveltime="7.07" overlapTraveltime="7.46" density="3.52" laneDensity="3.52" occupancy="1.68" waitingTime="0.00" timeLoss="68.02" speed="12.93" speedRelative="0.93" departed="0" arrived="156" entered="158" left="0" laneChangedFrom="0" laneChangedTo="0"/>
        <edge id="1150835051" sampledSeconds="0.00" departed="0" arrived="0" entered="0" left="0" laneChangedFrom="0" laneChangedTo="0"/>
        <edge id="1291636131" sampledSeconds="854.01" traveltime="6.50" overlapTraveltime="7.84" density="5.58" laneDensity="5.58" occupancy="2.57" waitingTime="107.00" timeLoss="426.73" speed="6.06" speedRelative="0.44" departed="122" arrived="0" entered="0" left="122" laneChangedFrom="0" laneChangedTo="0"/>
        <edge id="359247809#0" sampledSeconds="702.87" traveltime="7.05" overlapTraveltime="7.36" density="2.82" laneDensity="2.82" occupancy="1.26" waitingTime="0.00" timeLoss="387.17" speed="10.07" speedRelative="0.45" departed="0" arrived="96" entered="96" left="0" laneChangedFrom="0" laneChangedTo="0"/>
        <edge id="359408253" sampledSeconds="0.00" departed="0" arrived="0" entered="0" left="0" laneChangedFrom="0" laneChangedTo="0"/>
        <edge id="359408278" sampledSeconds="0.00" departed="0" arrived="0" entered="0" left="0" laneChangedFrom="0" laneChangedTo="0"/>
        <edge id="359408298" sampledSeconds="0.00" departed="0" arrived="0" entered="0" left="0" laneChangedFrom="0" laneChangedTo="0"/>
        <edge id="362347492" sampledSeconds="5454.02" traveltime="5.21" overlapTraveltime="5.83" density="15.01" laneDensity="5.00" occupancy="2.35" waitingTime="308.00" timeLoss="1868.38" speed="18.18" speedRelative="0.65" departed="984" arrived="0" entered="0" left="983" laneChangedFrom="111" laneChangedTo="111"/>
        <edge id="563175146#0" sampledSeconds="10219.31" traveltime="8.52" overlapTraveltime="8.72" density="15.11" laneDensity="5.04" occupancy="2.45" waitingTime="0.00" timeLoss="2018.43" speed="22.11" speedRelative="0.80" departed="0" arrived="1175" entered="1175" left="0" laneChangedFrom="15" laneChangedTo="15"/>
        <edge id="749313693#0" sampledSeconds="32359.09" traveltime="61.56" overlapTraveltime="62.25" density="59.33" laneDensity="19.78" occupancy="9.83" waitingTime="24423.00" timeLoss="29339.80" speed="2.51" speedRelative="0.09" departed="538" arrived="0" entered="0" left="536" laneChangedFrom="130" laneChangedTo="130"/>
        <edge id="749662139" sampledSeconds="3185.60" traveltime="2.37" overlapTraveltime="3.11" density="70.57" laneDensity="17.64" occupancy="6.76" waitingTime="851.00" timeLoss="2535.40" speed="5.64" speedRelative="0.20" departed="63" arrived="0" entered="982" left="1045" laneChangedFrom="80" laneChangedTo="80"/>
        <edge id="749662140#0" sampledSeconds="48205.79" traveltime="45.83" overlapTraveltime="46.47" density="272.16" laneDensity="68.04" occupancy="33.28" waitingTime="38632.00" timeLoss="46166.64" speed="1.17" speedRelative="0.04" departed="61" arrived="0" entered="987" left="1036" laneChangedFrom="212" laneChangedTo="212"/>
        <edge id="749988360#0" sampledSeconds="373.30" traveltime="1.33" overlapTraveltime="1.57" density="3.92" laneDensity="1.31" occupancy="0.55" waitingTime="0.00" timeLoss="104.37" speed="20.04" speedRelative="0.72" departed="0" arrived="89" entered="239" left="150" laneChangedFrom="0" laneChangedTo="0"/>
        <edge id="749988360#2" sampledSeconds="470.43" traveltime="2.96" overlapTraveltime="3.15" density="1.87" laneDensity="0.47" occupancy="0.22" waitingTime="0.00" timeLoss="67.15" speed="23.72" speedRelative="0.85" departed="0" arrived="150" entered="150" left="0" laneChangedFrom="2" laneChangedTo="2"/>
        <edge id="757092063" sampledSeconds="2621.03" traveltime="2.42" overlapTraveltime="2.65" density="15.43" laneDensity="3.09" occupancy="1.39" waitingTime="2.00" timeLoss="740.21" speed="19.66" speedRelative="0.71" departed="0" arrived="75" entered="989" left="914" laneChangedFrom="245" laneChangedTo="245"/>
        <edge id="757092064#0" sampledSeconds="1030.05" traveltime="0.97" overlapTraveltime="1.25" density="18.34" laneDensity="6.11" occupancy="2.37" waitingTime="0.00" timeLoss="406.70" speed="16.54" speedRelative="0.60" departed="36" arrived="22" entered="805" left="819" laneChangedFrom="60" laneChangedTo="60"/>
        <edge id="757092065#0" sampledSeconds="736.72" traveltime="3.87" overlapTraveltime="4.33" density="4.81" laneDensity="2.40" occupancy="1.05" waitingTime="0.00" timeLoss="306.22" speed="10.98" speedRelative="0.49" departed="0" arrived="0" entered="170" left="170" laneChangedFrom="41" laneChangedTo="41"/>
        <edge id="757373594" sampledSeconds="8709.69" traveltime="6.73" overlapTraveltime="7.79" density="202.12" laneDensity="33.69" occupancy="14.54" waitingTime="5491.00" timeLoss="8002.35" speed="2.18" speedRelative="0.08" departed="113" arrived="0" entered="1045" left="1157" laneChangedFrom="163" laneChangedTo="163"/>
        <edge id="762926802#0" sampledSeconds="0.00" departed="0" arrived="0" entered="0" left="0" laneChangedFrom="0" laneChangedTo="0"/>
        <edge id="822095302#0" sampledSeconds="0.00" departed="0" arrived="0" entered="0" left="0" laneChangedFrom="0" laneChangedTo="0"/>
        <edge id="822095302#1" sampledSeconds="0.00" departed="0" arrived="0" entered="0" left="0" laneChangedFrom="0" laneChangedTo="0"/>
        <edge id="822095302#2" sampledSeconds="0.00" departed="0" arrived="0" entered="0" left="0" laneChangedFrom="0" laneChangedTo="0"/>
        <edge id="841112609" sampledSeconds="0.00" departed="0" arrived="0" entered="0" left="0" laneChangedFrom="0" laneChangedTo="0"/>
        <edge id="885403818#1" sampledSeconds="36416.60" traveltime="28.95" overlapTraveltime="29.55" density="331.77" laneDensity="82.94" occupancy="40.59" waitingTime="29865.00" timeLoss="34813.82" speed="1.20" speedRelative="0.04" departed="53" arrived="62" entered="1195" left="1176" laneChangedFrom="109" laneChangedTo="109"/>
        <edge id="978400260#0" sampledSeconds="2272.25" traveltime="2.29" overlapTraveltime="2.49" density="11.79" laneDensity="3.93" occupancy="1.80" waitingTime="0.00" timeLoss="318.74" speed="23.52" speedRelative="0.85" departed="0" arrived="80" entered="914" left="834" laneChangedFrom="13" laneChangedTo="13"/>
        <edge id="978400260#0-AddedOffRampEdge" sampledSeconds="3411.87" traveltime="3.87" overlapTraveltime="4.10" density="10.04" laneDensity="2.51" occupancy="1.19" waitingTime="0.00" timeLoss="325.04" speed="24.25" speedRelative="0.87" departed="0" arrived="105" entered="834" left="728" laneChangedFrom="2" laneChangedTo="2"/>
        <edge id="978400260#2" sampledSeconds="1132.15" traveltime="1.92" overlapTraveltime="2.11" density="6.28" laneDensity="2.09" occupancy="0.96" waitingTime="0.00" timeLoss="53.42" speed="26.06" speedRelative="0.94" departed="0" arrived="540" entered="541" left="0" laneChangedFrom="3" laneChangedTo="3"/>
        <edge id="978400303#0" sampledSeconds="18768.57" traveltime="13.12" overlapTraveltime="13.54" density="22.09" laneDensity="5.52" occupancy="2.69" waitingTime="0.00" timeLoss="6316.92" speed="17.80" speedRelative="0.64" departed="41" arrived="102" entered="1346" left="1285" laneChangedFrom="229" laneChangedTo="229"/>
        <edge id="978400303#4" sampledSeconds="1581.48" traveltime="1.62" overlapTraveltime="1.82" density="11.45" laneDensity="2.86" occupancy="1.28" waitingTime="0.00" timeLoss="214.78" speed="23.80" speedRelative="0.86" departed="0" arrived="879" entered="879" left="0" laneChangedFrom="3" laneChangedTo="3"/>
        <edge id="978400306#0" sampledSeconds="1262.63" traveltime="1.66" overlapTraveltime="1.87" density="8.71" laneDensity="2.18" occupancy="1.02" waitingTime="0.00" timeLoss="149.19" speed="24.27" speedRelative="0.87" departed="763" arrived="0" entered="0" left="763" laneChangedFrom="62" laneChangedTo="62"/>
        <edge id="978400306#1" sampledSeconds="342.46" traveltime="0.01" overlapTraveltime="0.40" density="475.64" laneDensity="118.91" occupancy="2.32" waitingTime="2.00" timeLoss="180.99" speed="12.98" speedRelative="0.47" departed="97" arrived="0" entered="763" left="860" laneChangedFrom="0" laneChangedTo="0"/>
        <edge id="978400306#2" sampledSeconds="6243.92" traveltime="5.44" overlapTraveltime="5.68" density="17.31" laneDensity="4.33" occupancy="2.06" waitingTime="18.00" timeLoss="2036.26" speed="18.53" speedRelative="0.67" departed="124" arrived="0" entered="982" left="1105" laneChangedFrom="182" laneChangedTo="182"/>
        <edge id="978400306#2-AddedOffRampEdge" sampledSeconds="24182.28" traveltime="15.78" overlapTraveltime="20.05" density="71.10" laneDensity="14.22" occupancy="6.17" waitingTime="13348.38" timeLoss="19816.26" speed="4.96" speedRelative="0.18" departed="111" arrived="0" entered="1105" left="1199" laneChangedFrom="280" laneChangedTo="280"/>
    </interval>
    <interval begin="3600.00" end="3727.00" id="wizard_example">
        <edge id="-359247809#2" sampledSeconds="86.61" traveltime="7.43" overlapTraveltime="8.32" density="9.87" laneDensity="9.87" occupancy="4.48" waitingTime="0.00" timeLoss="48.11" speed="8.91" speedRelative="0.40" departed="0" arrived="8" entered="9" left="4" laneChangedFrom="0" laneChangedTo="0"/>
        <edge id="-359408253" sampledSeconds="0.00" departed="0" arrived="0" entered="0" left="0" laneChangedFrom="0" laneChangedTo="0"/>
        <edge id="-359408298" sampledSeconds="0.00" departed="0" arrived="0" entered="0" left="0" laneChangedFrom="0" laneChangedTo="0"/>
        <edge id="-563175088" sampledSeconds="0.00" departed="0" arrived="0" entered="0" left="0" laneChangedFrom="0" laneChangedTo="0"/>
        <edge id="-822095302#0" sampledSeconds="0.00" departed="0" arrived="0" entered="0" left="0" laneChangedFrom="0" laneChangedTo="0"/>
        <edge id="-822095302#1" sampledSeconds="0.00" departed="0" arrived="0" entered="0" left="0" laneChangedFrom="0" laneChangedTo="0"/>
        <edge id="-822095302#2" sampledSeconds="0.00" departed="0" arrived="0" entered="0" left="0" laneChangedFrom="0" laneChangedTo="0"/>
        <edge id="1020455379" sampledSeconds="0.00" departed="0" arrived="0" entered="0" left="0" laneChangedFrom="0" laneChangedTo="0"/>
        <edge id="1020455380#0" sampledSeconds="16.35" traveltime="2.06" overlapTraveltime="2.44" density="4.68" laneDensity="4.68" occupancy="1.99" waitingTime="0.00" timeLoss="0.89" speed="13.33" speedRelative="0.96" departed="0" arrived="1" entered="6" left="6" laneChangedFrom="0" laneChangedTo="0"/>
        <edge id="1053267667#1" sampledSeconds="888.86" traveltime="106.93" overlapTraveltime="101.51" density="52.80" laneDensity="17.60" occupancy="8.71" waitingTime="676.00" timeLoss="841.77" speed="1.36" speedRelative="0.05" departed="0" arrived="0" entered="4" left="25" laneChangedFrom="0" laneChangedTo="0"/>
        <edge id="1053267667#1-AddedOnRampEdge" sampledSeconds="15.57" traveltime="4.72" overlapTraveltime="4.93" density="1.29" laneDensity="0.32" occupancy="0.15" waitingTime="0.00" timeLoss="5.12" speed="20.26" speedRelative="0.73" departed="0" arrived="0" entered="2" left="4" laneChangedFrom="4" laneChangedTo="4"/>
        <edge id="1053267668" sampledSeconds="0.00" departed="0" arrived="0" entered="0" left="0" laneChangedFrom="0" laneChangedTo="0"/>
        <edge id="1053274595#0" sampledSeconds="0.00" departed="0" arrived="0" entered="0" left="0" laneChangedFrom="0" laneChangedTo="0"/>
        <edge id="1053274595#2" sampledSeconds="7.50" traveltime="10.00" overlapTraveltime="10.32" density="0.37" laneDensity="0.37" occupancy="0.18" waitingTime="0.00" timeLoss="1.02" speed="15.90" speedRelative="1.15" departed="0" arrived="0" entered="0" left="2" laneChangedFrom="0" laneChangedTo="0"/>
        <edge id="1064761335" sampledSeconds="0.00" departed="0" arrived="0" entered="0" left="0" laneChangedFrom="0" laneChangedTo="0"/>
        <edge id="1101055536" sampledSeconds="0.00" departed="0" arrived="0" entered="0" left="0" laneChangedFrom="0" laneChangedTo="0"/>
        <edge id="1125782445#0" sampledSeconds="53.93" traveltime="6.95" overlapTraveltime="7.33" density="4.65" laneDensity="4.65" occupancy="2.22" waitingTime="0.00" timeLoss="2.89" speed="13.15" speedRelative="0.95" departed="0" arrived="8" entered="6" left="0" laneChangedFrom="0" laneChangedTo="0"/>
        <edge id="1150835051" sampledSeconds="0.00" departed="0" arrived="0" entered="0" left="0" laneChangedFrom="0" laneChangedTo="0"/>
        <edge id="1291636131" sampledSeconds="0.00" departed="0" arrived="0" entered="0" left="0" laneChangedFrom="0" laneChangedTo="0"/>
        <edge id="359247809#0" sampledSeconds="28.11" traveltime="6.74" overlapTraveltime="7.03" density="3.20" laneDensity="3.20" occupancy="1.44" waitingTime="0.00" timeLoss="14.17" speed="10.55" speedRelative="0.47" departed="0" arrived="4" entered="4" left="0" laneChangedFrom="0" laneChangedTo="0"/>
        <edge id="359408253" sampledSeconds="0.00" departed="0" arrived="0" entered="0" left="0" laneChangedFrom="0" laneChangedTo="0"/>
        <edge id="359408278" sampledSeconds="0.00" departed="0" arrived="0" entered="0" left="0" laneChangedFrom="0" laneChangedTo="0"/>
        <edge id="359408298" sampledSeconds="0.00" departed="0" arrived="0" entered="0" left="0" laneChangedFrom="0" laneChangedTo="0"/>
        <edge id="362347492" sampledSeconds="6.65" traveltime="3.83" overlapTraveltime="4.06" density="0.52" laneDensity="0.17" occupancy="0.08" waitingTime="0.00" timeLoss="0.58" speed="26.10" speedRelative="0.94" departed="1" arrived="0" entered="0" left="2" laneChangedFrom="0" laneChangedTo="0"/>
        <edge id="563175146#0" sampledSeconds="284.63" traveltime="8.45" overlapTraveltime="8.64" density="11.93" laneDensity="3.98" occupancy="1.93" waitingTime="0.00" timeLoss="49.57" speed="22.31" speedRelative="0.80" departed="0" arrived="33" entered="33" left="0" laneChangedFrom="1" laneChangedTo="1"/>
        <edge id="749313693#0" sampledSeconds="130.18" traveltime="216.07" overlapTraveltime="205.49" density="6.77" laneDensity="2.26" occupancy="1.12" waitingTime="112.00" timeLoss="126.84" speed="0.76" speedRelative="0.03" departed="0" arrived="0" entered="0" left="2" laneChangedFrom="1" laneChangedTo="1"/>
        <edge id="749662139" sampledSeconds="2.92" traveltime="0.69" overlapTraveltime="1.01" density="1.83" laneDensity="0.46" occupancy="0.17" waitingTime="0.00" timeLoss="1.16" speed="17.35" speedRelative="0.62" departed="0" arrived="0" entered="3" left="3" laneChangedFrom="0" laneChangedTo="0"/>
        <edge id="749662140#0" sampledSeconds="729.09" traveltime="101.34" overlapTraveltime="93.51" density="116.68" laneDensity="29.17" occupancy="14.45" waitingTime="629.00" timeLoss="713.81" speed="0.58" speedRelative="0.02" departed="0" arrived="0" entered="3" left="15" laneChangedFrom="5" laneChangedTo="5"/>
        <edge id="749988360#0" sampledSeconds="17.00" traveltime="1.32" overlapTraveltime="1.56" density="5.06" laneDensity="1.69" occupancy="0.71" waitingTime="0.00" timeLoss="3.74" speed="20.14" speedRelative="0.72" departed="0" arrived="2" entered="11" left="9" laneChangedFrom="0" laneChangedTo="0"/>
        <edge id="749988360#2" sampledSeconds="28.71" traveltime="3.00" overlapTraveltime="3.20" density="3.24" laneDensity="0.81" occupancy="0.38" waitingTime="0.00" timeLoss="2.41" speed="23.37" speedRelative="0.84" departed="0" arrived="9" entered="9" left="0" laneChangedFrom="0" laneChangedTo="0"/>
        <edge id="757092063" sampledSeconds="43.53" traveltime="2.34" overlapTraveltime="2.56" density="7.27" laneDensity="1.45" occupancy="0.66" waitingTime="0.00" timeLoss="11.67" speed="20.37" speedRelative="0.73" departed="0" arrived="3" entered="17" left="14" laneChangedFrom="4" laneChangedTo="4"/>
        <edge id="757092064#0" sampledSeconds="19.04" traveltime="0.99" overlapTraveltime="1.27" density="9.61" laneDensity="3.20" occupancy="1.21" waitingTime="0.00" timeLoss="7.95" speed="16.18" speedRelative="0.58" departed="0" arrived="0" entered="15" left="15" laneChangedFrom="2" laneChangedTo="2"/>
        <edge id="757092065#0" sampledSeconds="9.04" traveltime="4.05" overlapTraveltime="4.52" density="1.67" laneDensity="0.84" occupancy="0.37" waitingTime="0.00" timeLoss="3.63" speed="10.53" speedRelative="0.47" departed="0" arrived="0" entered="2" left="2" laneChangedFrom="1" laneChangedTo="1"/>
        <edge id="757373594" sampledSeconds="17.89" traveltime="3.74" overlapTraveltime="4.47" density="11.77" laneDensity="1.96" occupancy="0.85" waitingTime="7.00" timeLoss="15.26" speed="3.79" speedRelative="0.14" departed="1" arrived="0" entered="3" left="5" laneChangedFrom="1" laneChangedTo="1"/>
        <edge id="762926802#0" sampledSeconds="0.00" departed="0" arrived="0" entered="0" left="0" laneChangedFrom="0" laneChangedTo="0"/>
        <edge id="822095302#0" sampledSeconds="0.00" departed="0" arrived="0" entered="0" left="0" laneChangedFrom="0" laneChangedTo="0"/>
        <edge id="822095302#1" sampledSeconds="0.00" departed="0" arrived="0" entered="0" left="0" laneChangedFrom="0" laneChangedTo="0"/>
        <edge id="822095302#2" sampledSeconds="0.00" departed="0" arrived="0" entered="0" left="0" laneChangedFrom="0" laneChangedTo="0"/>
        <edge id="841112609" sampledSeconds="0.00" departed="0" arrived="0" entered="0" left="0" laneChangedFrom="0" laneChangedTo="0"/>
        <edge id="885403818#1" sampledSeconds="326.41" traveltime="10.86" overlapTraveltime="11.11" density="84.29" laneDensity="21.07" occupancy="9.93" waitingTime="188.00" timeLoss="287.37" speed="3.20" speedRelative="0.12" departed="2" arrived="2" entered="22" left="32" laneChangedFrom="0" laneChangedTo="0"/>
        <edge id="978400260#0" sampledSeconds="33.76" traveltime="2.21" overlapTraveltime="2.41" density="4.96" laneDensity="1.65" occupancy="0.76" waitingTime="0.00" timeLoss="4.21" speed="24.28" speedRelative="0.87" departed="0" arrived="2" entered="14" left="12" laneChangedFrom="0" laneChangedTo="0"/>
        <edge id="978400260#0-AddedOffRampEdge" sampledSeconds="54.10" traveltime="3.96" overlapTraveltime="4.23" density="4.51" laneDensity="1.13" occupancy="0.53" waitingTime="0.00" timeLoss="6.12" speed="23.51" speedRelative="0.85" departed="0" arrived="2" entered="12" left="11" laneChangedFrom="0" laneChangedTo="0"/>
        <edge id="978400260#2" sampledSeconds="12.06" traveltime="1.89" overlapTraveltime="2.07" density="1.90" laneDensity="0.63" occupancy="0.29" waitingTime="0.00" timeLoss="0.30" speed="26.55" speedRelative="0.96" departed="0" arrived="6" entered="5" left="0" laneChangedFrom="0" laneChangedTo="0"/>
        <edge id="978400303#0" sampledSeconds="278.34" traveltime="12.76" overlapTraveltime="13.25" density="9.29" laneDensity="2.32" occupancy="1.13" waitingTime="0.00" timeLoss="88.51" speed="18.18" speedRelative="0.65" departed="0" arrived="0" entered="21" left="21" laneChangedFrom="4" laneChangedTo="4"/>
        <edge id="978400303#4" sampledSeconds="19.76" traveltime="1.48" overlapTraveltime="1.67" density="4.06" laneDensity="1.01" occupancy="0.45" waitingTime="0.00" timeLoss="1.39" speed="25.90" speedRelative="0.93" departed="0" arrived="12" entered="12" left="0" laneChangedFrom="1" laneChangedTo="1"/>
        <edge id="978400306#0" sampledSeconds="0.00" departed="0" arrived="0" entered="0" left="0" laneChangedFrom="0" laneChangedTo="0"/>
        <edge id="978400306#1" sampledSeconds="0.00" departed="0" arrived="0" entered="0" left="0" laneChangedFrom="0" laneChangedTo="0"/>
        <edge id="978400306#2" sampledSeconds="0.46" traveltime="4.67" overlapTraveltime="4.90" density="0.04" laneDensity="0.01" occupancy="0.00" waitingTime="0.00" timeLoss="0.15" speed="21.47" speedRelative="0.77" departed="0" arrived="0" entered="0" left="1" laneChangedFrom="0" laneChangedTo="0"/>
        <edge id="978400306#2-AddedOffRampEdge" sampledSeconds="167.94" traveltime="36.08" overlapTraveltime="34.37" density="14.00" laneDensity="2.80" occupancy="1.30" waitingTime="46.00" timeLoss="149.91" speed="2.89" speedRelative="0.10" departed="0" arrived="0" entered="1" left="18" laneChangedFrom="3" laneChangedTo="3"/>
    </interval>
</meandata>
