<?xml version="1.0" encoding="UTF-8"?>

<!-- generated on 2026-03-31 22:25:37 by Eclipse SUMO sumo Version 1.22.0
<sumoConfiguration xmlns:xsi="http://www.w3.org/2001/XMLSchema-instance" xsi:noNamespaceSchemaLocation="http://sumo.dlr.de/xsd/sumoConfiguration.xsd">

    <input>
        <net-file value="osm.net.xml.gz"/>
        <route-files value="osm.passenger.trips.xml"/>
        <additional-files value="osm.poly.xml.gz,output.add.xml"/>
    </input>

    <output>
        <tripinfo-output value="tripinfos.xml"/>
        <statistic-output value="stats.xml"/>
    </output>

    <processing>
        <ignore-route-errors value="true"/>
        <time-to-teleport value="-1"/>
        <waiting-time-memory value="1000"/>
        <tls.actuated.jam-threshold value="30"/>
    </processing>

    <routing>
        <device.rerouting.adaptation-steps value="18"/>
        <device.rerouting.adaptation-interval value="10"/>
    </routing>

    <report>
        <verbose value="true"/>
        <duration-log.statistics value="true"/>
        <no-step-log value="true"/>
    </report>

    <traci_server>
        <remote-port value="51130"/>
    </traci_server>

</sumoConfiguration>
-->

<tripinfos xmlns:xsi="http://www.w3.org/2001/XMLSchema-instance" xsi:noNamespaceSchemaLocation="http://sumo.dlr.de/xsd/tripinfo_file.xsd">
    <tripinfo id="veh4" depart="4.00" departLane="978400306#0_0" departPos="5.10" departSpeed="28.62" departDelay="0.40" arrival="26.00" arrivalLane="563175146#0_0" arrivalPos="187.82" arrivalSpeed="27.70" duration="22.00" routeLength="539.12" waitingTime="0.00" waitingCount="0" stopTime="0.00" timeLoss="2.93" rerouteNo="1" devices="tripinfo_veh4 routing_veh4" vType="veh_passenger" speedFactor="1.03" vaporized=""/>
    <tripinfo id="veh6" depart="6.00" departLane="978400306#0_0" departPos="5.10" departSpeed="29.05" departDelay="0.60" arrival="28.00" arrivalLane="563175146#0_0" arrivalPos="187.82" arrivalSpeed="27.99" duration="22.00" routeLength="539.12" waitingTime="0.00" waitingCount="0" stopTime="0.00" timeLoss="2.85" rerouteNo="1" devices="tripinfo_veh6 routing_veh6" vType="veh_passenger" speedFactor="1.05" vaporized=""/>
    <tripinfo id="veh2" depart="2.00" departLane="362347492_1" departPos="5.10" departSpeed="28.07" departDelay="0.20" arrival="31.00" arrivalLane="978400303#4_2" arrivalPos="38.36" arrivalSpeed="27.49" duration="29.00" routeLength="547.73" waitingTime="0.00" waitingCount="0" stopTime="0.00" timeLoss="9.06" rerouteNo="1" devices="tripinfo_veh2 routing_veh2" vType="veh_passenger" speedFactor="1.01" vaporized=""/>
    <tripinfo id="veh11" depart="10.00" departLane="978400306#0_0" departPos="5.10" departSpeed="18.26" departDelay="0.10" arrival="31.00" arrivalLane="563175146#0_1" arrivalPos="187.82" arrivalSpeed="27.82" duration="21.00" routeLength="539.12" waitingTime="0.00" waitingCount="0" stopTime="0.00" timeLoss="1.60" rerouteNo="1" devices="tripinfo_veh11 routing_veh11" vType="veh_passenger" speedFactor="1.03" vaporized=""/>
    <tripinfo id="veh9" depart="9.00" departLane="1053267667#1-AddedOnRampEdge_1" departPos="5.10" departSpeed="0.00" departDelay="0.90" arrival="34.00" arrivalLane="749988360#2_1" arrivalPos="69.80" arrivalSpeed="23.28" duration="25.00" routeLength="399.12" waitingTime="0.00" waitingCount="0" stopTime="0.00" timeLoss="8.20" rerouteNo="1" devices="tripinfo_veh9 routing_veh9" vType="veh_passenger" speedFactor="0.86" vaporized=""/>
    <tripinfo id="veh5" depart="5.00" departLane="1291636131_0" departPos="5.10" departSpeed="11.54" departDelay="0.50" arrival="36.00" arrivalLane="563175146#0_0" arrivalPos="187.82" arrivalSpeed="22.45" duration="31.00" routeLength="529.53" waitingTime="0.00" waitingCount="0" stopTime="0.00" timeLoss="5.55" rerouteNo="1" devices="tripinfo_veh5 routing_veh5" vType="veh_passenger" speedFactor="0.83" vaporized=""/>
    <tripinfo id="veh0" depart="0.00" departLane="362347492_0" departPos="5.10" departSpeed="29.45" departDelay="0.00" arrival="39.00" arrivalLane="-359247809#2_0" arrivalPos="69.06" arrivalSpeed="18.96" duration="39.00" routeLength="573.01" waitingTime="0.00" waitingCount="0" stopTime="0.00" timeLoss="17.60" rerouteNo="1" devices="tripinfo_veh0 routing_veh0" vType="veh_passenger" speedFactor="1.06" vaporized=""/>
    <tripinfo id="veh1" depart="1.00" departLane="1053267668_2" departPos="5.10" departSpeed="26.07" departDelay="0.10" arrival="42.00" arrivalLane="563175146#0_2" arrivalPos="187.82" arrivalSpeed="25.43" duration="41.00" routeLength="517.75" waitingTime="9.00" waitingCount="1" stopTime="0.00" timeLoss="18.52" rerouteNo="1" devices="tripinfo_veh1 routing_veh1" vType="veh_passenger" speedFactor="0.94" vaporized=""/>
    <tripinfo id="veh30" depart="27.00" departLane="1053267668_0" departPos="5.10" departSpeed="17.54" departDelay="0.01" arrival="42.00" arrivalLane="1053267667#1_1" arrivalPos="132.55" arrivalSpeed="9.95" duration="15.00" routeLength="274.03" waitingTime="0.00" waitingCount="0" stopTime="0.00" timeLoss="6.40" rerouteNo="1" devices="tripinfo_veh30 routing_veh30" vType="veh_passenger" speedFactor="1.18" vaporized=""/>
    <tripinfo id="veh15" depart="14.00" departLane="1053267668_2" departPos="5.10" departSpeed="25.75" departDelay="0.50" arrival="44.00" arrivalLane="563175146#0_2" arrivalPos="187.82" arrivalSpeed="25.48" duration="30.00" routeLength="517.75" waitingTime="0.00" waitingCount="0" stopTime="0.00" timeLoss="7.23" rerouteNo="1" devices="tripinfo_veh15 routing_veh15" vType="veh_passenger" speedFactor="0.93" vaporized=""/>
    <tripinfo id="veh33" depart="30.00" departLane="978400303#0_1" departPos="5.10" departSpeed="0.00" departDelay="0.31" arrival="47.00" arrivalLane="978400303#4_1" arrivalPos="38.36" arrivalSpeed="31.83" duration="17.00" routeLength="283.75" waitingTime="0.00" waitingCount="0" stopTime="0.00" timeLoss="7.81" rerouteNo="0" devices="tripinfo_veh33 routing_veh33" vType="veh_passenger" speedFactor="1.17" vaporized=""/>
    <tripinfo id="veh36" depart="33.00" departLane="978400303#0_0" departPos="5.10" departSpeed="0.00" departDelay="0.61" arrival="50.00" arrivalLane="978400303#4_0" arrivalPos="38.36" arrivalSpeed="26.02" duration="17.00" routeLength="283.75" waitingTime="0.00" waitingCount="0" stopTime="0.00" timeLoss="6.32" rerouteNo="0" devices="tripinfo_veh36 routing_veh36" vType="veh_passenger" speedFactor="0.97" vaporized=""/>
    <tripinfo id="veh12" depart="11.00" departLane="362347492_1" departPos="5.10" departSpeed="29.09" departDelay="0.20" arrival="51.00" arrivalLane="978400303#4_1" arrivalPos="38.36" arrivalSpeed="28.21" duration="40.00" routeLength="547.73" waitingTime="9.00" waitingCount="1" stopTime="0.00" timeLoss="20.98" rerouteNo="1" devices="tripinfo_veh12 routing_veh12" vType="veh_passenger" speedFactor="1.05" vaporized=""/>
    <tripinfo id="veh20" depart="18.00" departLane="362347492_2" departPos="5.10" departSpeed="28.28" departDelay="0.00" arrival="51.00" arrivalLane="978400303#4_3" arrivalPos="38.36" arrivalSpeed="27.95" duration="33.00" routeLength="547.73" waitingTime="2.00" waitingCount="1" stopTime="0.00" timeLoss="12.83" rerouteNo="1" devices="tripinfo_veh20 routing_veh20" vType="veh_passenger" speedFactor="1.02" vaporized=""/>
    <tripinfo id="veh8" depart="8.00" departLane="749662139_0" departPos="5.10" departSpeed="0.00" departDelay="0.80" arrival="52.00" arrivalLane="978400303#4_0" arrivalPos="38.36" arrivalSpeed="25.07" duration="44.00" routeLength="438.72" waitingTime="12.00" waitingCount="1" stopTime="0.00" timeLoss="26.65" rerouteNo="1" devices="tripinfo_veh8 routing_veh8" vType="veh_passenger" speedFactor="0.94" vaporized=""/>
    <tripinfo id="veh10" depart="9.00" departLane="362347492_0" departPos="5.10" departSpeed="28.36" departDelay="0.00" arrival="53.00" arrivalLane="978400303#4_0" arrivalPos="38.36" arrivalSpeed="27.06" duration="44.00" routeLength="547.73" waitingTime="10.00" waitingCount="1" stopTime="0.00" timeLoss="25.50" rerouteNo="1" devices="tripinfo_veh10 routing_veh10" vType="veh_passenger" speedFactor="1.09" vaporized=""/>
    <tripinfo id="veh17" depart="16.00" departLane="362347492_1" departPos="5.10" departSpeed="26.15" departDelay="0.70" arrival="53.00" arrivalLane="978400303#4_3" arrivalPos="38.36" arrivalSpeed="26.05" duration="37.00" routeLength="547.73" waitingTime="5.00" waitingCount="1" stopTime="0.00" timeLoss="15.77" rerouteNo="1" devices="tripinfo_veh17 routing_veh17" vType="veh_passenger" speedFactor="0.94" vaporized=""/>
    <tripinfo id="veh16" depart="15.00" departLane="362347492_0" departPos="5.10" departSpeed="24.40" departDelay="0.60" arrival="54.00" arrivalLane="978400260#2_0" arrivalPos="50.09" arrivalSpeed="23.77" duration="39.00" routeLength="497.42" waitingTime="5.00" waitingCount="1" stopTime="0.00" timeLoss="16.34" rerouteNo="1" devices="tripinfo_veh16 routing_veh16" vType="veh_passenger" speedFactor="0.88" vaporized=""/>
    <tripinfo id="veh31" depart="28.00" departLane="362347492_0" departPos="5.10" departSpeed="32.07" departDelay="0.11" arrival="62.00" arrivalLane="-359247809#2_0" arrivalPos="69.06" arrivalSpeed="17.11" duration="34.00" routeLength="573.01" waitingTime="0.00" waitingCount="0" stopTime="0.00" timeLoss="14.34" rerouteNo="1" devices="tripinfo_veh31 routing_veh31" vType="veh_passenger" speedFactor="1.15" vaporized=""/>
    <tripinfo id="veh3" depart="3.00" departLane="749313693#0_0" departPos="5.10" departSpeed="30.08" departDelay="0.30" arrival="63.00" arrivalLane="978400260#0-AddedOffRampEdge_0" arrivalPos="94.35" arrivalSpeed="29.75" duration="60.00" routeLength="455.13" waitingTime="32.00" waitingCount="1" stopTime="0.00" timeLoss="44.04" rerouteNo="1" devices="tripinfo_veh3 routing_veh3" vType="veh_passenger" speedFactor="1.08" vaporized=""/>
    <tripinfo id="veh28" depart="26.00" departLane="978400306#0_0" departPos="5.10" departSpeed="29.31" departDelay="0.81" arrival="63.00" arrivalLane="563175146#0_2" arrivalPos="187.82" arrivalSpeed="31.21" duration="37.00" routeLength="539.12" waitingTime="2.00" waitingCount="1" stopTime="0.00" timeLoss="19.47" rerouteNo="1" devices="tripinfo_veh28 routing_veh28" vType="veh_passenger" speedFactor="1.13" vaporized=""/>
    <tripinfo id="veh13" depart="12.00" departLane="749313693#0_1" departPos="5.10" departSpeed="31.19" departDelay="0.30" arrival="64.00" arrivalLane="978400260#2_1" arrivalPos="50.09" arrivalSpeed="30.23" duration="52.00" routeLength="508.49" waitingTime="23.00" waitingCount="1" stopTime="0.00" timeLoss="34.81" rerouteNo="1" devices="tripinfo_veh13 routing_veh13" vType="veh_passenger" speedFactor="1.12" vaporized=""/>
    <tripinfo id="veh18" depart="17.00" departLane="978400306#0_0" departPos="5.10" departSpeed="26.01" departDelay="0.80" arrival="64.00" arrivalLane="563175146#0_0" arrivalPos="187.82" arrivalSpeed="25.24" duration="47.00" routeLength="539.12" waitingTime="15.00" waitingCount="1" stopTime="0.00" timeLoss="25.46" rerouteNo="1" devices="tripinfo_veh18 routing_veh18" vType="veh_passenger" speedFactor="0.94" vaporized=""/>
    <tripinfo id="veh29" depart="27.00" departLane="978400306#0_1" departPos="5.10" departSpeed="25.87" departDelay="0.91" arrival="64.00" arrivalLane="563175146#0_1" arrivalPos="187.82" arrivalSpeed="25.81" duration="37.00" routeLength="539.12" waitingTime="5.00" waitingCount="1" stopTime="0.00" timeLoss="15.40" rerouteNo="1" devices="tripinfo_veh29 routing_veh29" vType="veh_passenger" speedFactor="0.93" vaporized=""/>
    <tripinfo id="veh22" depart="20.00" departLane="749313693#0_2" departPos="5.10" departSpeed="27.09" departDelay="0.20" arrival="65.00" arrivalLane="978400260#2_1" arrivalPos="50.09" arrivalSpeed="26.26" duration="45.00" routeLength="508.49" waitingTime="15.00" waitingCount="1" stopTime="0.00" timeLoss="25.54" rerouteNo="1" devices="tripinfo_veh22 routing_veh22" vType="veh_passenger" speedFactor="0.97" vaporized=""/>
    <tripinfo id="veh25" depart="23.00" departLane="978400306#0_0" departPos="5.10" departSpeed="24.24" departDelay="0.51" arrival="65.00" arrivalLane="563175146#0_0" arrivalPos="187.82" arrivalSpeed="23.29" duration="42.00" routeLength="539.12" waitingTime="10.00" waitingCount="1" stopTime="0.00" timeLoss="19.65" rerouteNo="1" devices="tripinfo_veh25 routing_veh25" vType="veh_passenger" speedFactor="0.87" vaporized=""/>
    <tripinfo id="veh39" depart="36.00" departLane="978400306#2_2" departPos="5.10" departSpeed="0.00" departDelay="0.91" arrival="65.00" arrivalLane="563175146#0_2" arrivalPos="187.82" arrivalSpeed="24.68" duration="29.00" routeLength="478.81" waitingTime="0.00" waitingCount="0" stopTime="0.00" timeLoss="9.62" rerouteNo="1" devices="tripinfo_veh39 routing_veh39" vType="veh_passenger" speedFactor="0.90" vaporized=""/>
    <tripinfo id="veh34" depart="31.00" departLane="978400306#0_0" departPos="5.10" departSpeed="27.64" departDelay="0.41" arrival="66.00" arrivalLane="563175146#0_1" arrivalPos="187.82" arrivalSpeed="25.19" duration="35.00" routeLength="539.12" waitingTime="3.00" waitingCount="1" stopTime="0.00" timeLoss="14.71" rerouteNo="1" devices="tripinfo_veh34 routing_veh34" vType="veh_passenger" speedFactor="0.99" vaporized=""/>
    <tripinfo id="veh32" depart="30.00" departLane="1053267667#1-AddedOnRampEdge_2" departPos="5.10" departSpeed="0.00" departDelay="1.21" arrival="67.00" arrivalLane="749988360#0_1" arrivalPos="26.46" arrivalSpeed="18.67" duration="37.00" routeLength="326.12" waitingTime="9.00" waitingCount="1" stopTime="0.00" timeLoss="25.02" rerouteNo="1" devices="tripinfo_veh32 routing_veh32" vType="veh_passenger" speedFactor="1.01" vaporized=""/>
    <tripinfo id="veh37" depart="34.00" departLane="978400306#0_0" departPos="5.10" departSpeed="32.77" departDelay="0.71" arrival="67.00" arrivalLane="563175146#0_0" arrivalPos="187.82" arrivalSpeed="25.87" duration="33.00" routeLength="539.12" waitingTime="1.00" waitingCount="1" stopTime="0.00" timeLoss="16.15" rerouteNo="1" devices="tripinfo_veh37 routing_veh37" vType="veh_passenger" speedFactor="1.18" vaporized=""/>
    <tripinfo id="veh38" depart="35.00" departLane="978400306#2_1" departPos="5.10" departSpeed="0.00" departDelay="0.81" arrival="67.00" arrivalLane="563175146#0_2" arrivalPos="187.82" arrivalSpeed="29.26" duration="32.00" routeLength="478.81" waitingTime="0.00" waitingCount="0" stopTime="0.00" timeLoss="15.54" rerouteNo="1" devices="tripinfo_veh38 routing_veh38" vType="veh_passenger" speedFactor="1.10" vaporized=""/>
    <tripinfo id="veh43" depart="39.00" departLane="978400306#1_3" departPos="0.20" departSpeed="0.00" departDelay="0.31" arrival="67.00" arrivalLane="978400260#0-AddedOffRampEdge_3" arrivalPos="94.35" arrivalSpeed="28.14" duration="28.00" routeLength="554.86" waitingTime="0.00" waitingCount="0" stopTime="0.00" timeLoss="7.74" rerouteNo="1" devices="tripinfo_veh43 routing_veh43" vType="veh_passenger" speedFactor="1.04" vaporized=""/>
    <tripinfo id="veh45" depart="41.00" departLane="978400306#0_0" departPos="5.10" departSpeed="30.22" departDelay="0.51" arrival="67.00" arrivalLane="563175146#0_1" arrivalPos="187.82" arrivalSpeed="26.70" duration="26.00" routeLength="539.12" waitingTime="0.00" waitingCount="0" stopTime="0.00" timeLoss="7.95" rerouteNo="1" devices="tripinfo_veh45 routing_veh45" vType="veh_passenger" speedFactor="1.09" vaporized=""/>
    <tripinfo id="veh48" depart="44.00" departLane="885403818#1_3" departPos="5.10" departSpeed="0.00" departDelay="0.81" arrival="67.00" arrivalLane="978400260#2_2" arrivalPos="50.09" arrivalSpeed="24.34" duration="23.00" routeLength="387.82" waitingTime="0.00" waitingCount="0" stopTime="0.00" timeLoss="6.60" rerouteNo="1" devices="tripinfo_veh48 routing_veh48" vType="veh_passenger" speedFactor="0.88" vaporized=""/>
    <tripinfo id="veh27" depart="25.00" departLane="1053267667#1-AddedOnRampEdge_1" departPos="5.10" departSpeed="0.00" departDelay="0.71" arrival="71.00" arrivalLane="749988360#2_1" arrivalPos="69.80" arrivalSpeed="25.53" duration="46.00" routeLength="399.12" waitingTime="14.00" waitingCount="1" stopTime="0.00" timeLoss="30.07" rerouteNo="1" devices="tripinfo_veh27 routing_veh27" vType="veh_passenger" speedFactor="0.95" vaporized=""/>
    <tripinfo id="veh19" depart="18.00" departLane="1053274595#0_0" departPos="5.10" departSpeed="16.09" departDelay="0.90" arrival="72.00" arrivalLane="749988360#2_2" arrivalPos="69.80" arrivalSpeed="25.33" duration="54.00" routeLength="593.09" waitingTime="12.00" waitingCount="1" stopTime="0.00" timeLoss="29.55" rerouteNo="1" devices="tripinfo_veh19 routing_veh19" vType="veh_passenger" speedFactor="1.16" vaporized=""/>
    <tripinfo id="veh58" depart="53.00" departLane="1053267667#1_1" departPos="5.10" departSpeed="0.00" departDelay="0.81" arrival="73.00" arrivalLane="749988360#2_2" arrivalPos="69.80" arrivalSpeed="26.30" duration="20.00" routeLength="296.31" waitingTime="0.00" waitingCount="0" stopTime="0.00" timeLoss="9.40" rerouteNo="1" devices="tripinfo_veh58 routing_veh58" vType="veh_passenger" speedFactor="1.02" vaporized=""/>
    <tripinfo id="veh23" depart="21.00" departLane="1053267668_2" departPos="5.10" departSpeed="24.71" departDelay="0.30" arrival="74.00" arrivalLane="563175146#0_2" arrivalPos="187.82" arrivalSpeed="24.25" duration="53.00" routeLength="517.75" waitingTime="22.00" waitingCount="1" stopTime="0.00" timeLoss="29.74" rerouteNo="1" devices="tripinfo_veh23 routing_veh23" vType="veh_passenger" speedFactor="0.89" vaporized=""/>
    <tripinfo id="veh35" depart="32.00" departLane="362347492_0" departPos="5.10" departSpeed="28.33" departDelay="0.51" arrival="75.00" arrivalLane="359247809#0_0" arrivalPos="69.12" arrivalSpeed="17.06" duration="43.00" routeLength="646.80" waitingTime="0.00" waitingCount="0" stopTime="0.00" timeLoss="16.43" rerouteNo="1" devices="tripinfo_veh35 routing_veh35" vType="veh_passenger" speedFactor="1.02" vaporized=""/>
    <tripinfo id="veh14" depart="13.00" departLane="1053274595#0_0" departPos="5.10" departSpeed="13.77" departDelay="0.40" arrival="76.00" arrivalLane="563175146#0_2" arrivalPos="187.82" arrivalSpeed="27.44" duration="63.00" routeLength="667.95" waitingTime="12.00" waitingCount="1" stopTime="0.00" timeLoss="29.23" rerouteNo="1" devices="tripinfo_veh14 routing_veh14" vType="veh_passenger" speedFactor="0.99" vaporized=""/>
    <tripinfo id="veh65" depart="59.00" departLane="1053267668_2" departPos="5.10" departSpeed="24.51" departDelay="0.51" arrival="85.00" arrivalLane="563175146#0_2" arrivalPos="187.82" arrivalSpeed="23.34" duration="26.00" routeLength="517.75" waitingTime="0.00" waitingCount="0" stopTime="0.00" timeLoss="2.93" rerouteNo="1" devices="tripinfo_veh65 routing_veh65" vType="veh_passenger" speedFactor="0.88" vaporized=""/>
    <tripinfo id="veh60" depart="54.00" departLane="1053267668_0" departPos="5.10" departSpeed="30.07" departDelay="0.01" arrival="87.00" arrivalLane="-359247809#2_0" arrivalPos="69.06" arrivalSpeed="16.71" duration="33.00" routeLength="635.35" waitingTime="0.00" waitingCount="0" stopTime="0.00" timeLoss="9.48" rerouteNo="1" devices="tripinfo_veh60 routing_veh60" vType="veh_passenger" speedFactor="1.08" vaporized=""/>
    <tripinfo id="veh46" depart="42.00" departLane="1053274595#0_0" departPos="5.10" departSpeed="13.85" departDelay="0.61" arrival="90.00" arrivalLane="-359247809#2_0" arrivalPos="69.06" arrivalSpeed="18.77" duration="48.00" routeLength="785.55" waitingTime="0.00" waitingCount="0" stopTime="0.00" timeLoss="10.58" rerouteNo="1" devices="tripinfo_veh46 routing_veh46" vType="veh_passenger" speedFactor="1.00" vaporized=""/>
    <tripinfo id="veh66" depart="60.00" departLane="1053274595#0_0" departPos="5.10" departSpeed="12.60" departDelay="0.61" arrival="91.00" arrivalLane="1053267667#1_1" arrivalPos="132.55" arrivalSpeed="8.86" duration="31.00" routeLength="424.23" waitingTime="0.00" waitingCount="0" stopTime="0.00" timeLoss="6.70" rerouteNo="1" devices="tripinfo_veh66 routing_veh66" vType="veh_passenger" speedFactor="0.91" vaporized=""/>
    <tripinfo id="veh52" depart="47.00" departLane="362347492_2" departPos="5.10" departSpeed="28.25" departDelay="0.21" arrival="97.00" arrivalLane="978400303#4_3" arrivalPos="38.36" arrivalSpeed="27.74" duration="50.00" routeLength="547.73" waitingTime="21.00" waitingCount="1" stopTime="0.00" timeLoss="30.36" rerouteNo="1" devices="tripinfo_veh52 routing_veh52" vType="veh_passenger" speedFactor="1.02" vaporized=""/>
    <tripinfo id="veh42" depart="38.00" departLane="362347492_1" departPos="5.10" departSpeed="30.33" departDelay="0.21" arrival="98.00" arrivalLane="978400303#4_2" arrivalPos="38.36" arrivalSpeed="29.44" duration="60.00" routeLength="547.73" waitingTime="28.00" waitingCount="1" stopTime="0.00" timeLoss="41.63" rerouteNo="1" devices="tripinfo_veh42 routing_veh42" vType="veh_passenger" speedFactor="1.09" vaporized=""/>
    <tripinfo id="veh44" depart="40.00" departLane="362347492_0" departPos="5.10" departSpeed="28.99" departDelay="0.41" arrival="98.00" arrivalLane="978400303#4_1" arrivalPos="38.36" arrivalSpeed="28.31" duration="58.00" routeLength="547.73" waitingTime="25.00" waitingCount="1" stopTime="0.00" timeLoss="38.87" rerouteNo="1" devices="tripinfo_veh44 routing_veh44" vType="veh_passenger" speedFactor="1.04" vaporized=""/>
    <tripinfo id="veh40" depart="36.00" departLane="362347492_0" departPos="5.10" departSpeed="28.62" departDelay="0.01" arrival="99.00" arrivalLane="978400303#4_0" arrivalPos="38.36" arrivalSpeed="28.17" duration="63.00" routeLength="547.73" waitingTime="31.00" waitingCount="1" stopTime="0.00" timeLoss="42.97" rerouteNo="1" devices="tripinfo_veh40 routing_veh40" vType="veh_passenger" speedFactor="1.03" vaporized=""/>
    <tripinfo id="veh7" depart="7.00" departLane="749313693#0_0" departPos="5.10" departSpeed="24.61" departDelay="0.70" arrival="101.00" arrivalLane="563175146#0_0" arrivalPos="187.82" arrivalSpeed="23.88" duration="94.00" routeLength="376.11" waitingTime="63.00" waitingCount="2" stopTime="0.00" timeLoss="76.99" rerouteNo="0" devices="tripinfo_veh7 routing_veh7" vType="veh_passenger" speedFactor="0.89" vaporized=""/>
    <tripinfo id="veh47" depart="43.00" departLane="749313693#0_0" departPos="5.10" departSpeed="25.02" departDelay="0.71" arrival="106.00" arrivalLane="563175146#0_0" arrivalPos="187.82" arrivalSpeed="24.11" duration="63.00" routeLength="376.11" waitingTime="34.00" waitingCount="1" stopTime="0.00" timeLoss="45.82" rerouteNo="0" devices="tripinfo_veh47 routing_veh47" vType="veh_passenger" speedFactor="0.90" vaporized=""/>
    <tripinfo id="veh26" depart="24.00" departLane="749313693#0_0" departPos="5.10" departSpeed="25.48" departDelay="0.61" arrival="107.00" arrivalLane="978400260#2_2" arrivalPos="50.09" arrivalSpeed="25.08" duration="83.00" routeLength="508.49" waitingTime="48.00" waitingCount="2" stopTime="0.00" timeLoss="62.24" rerouteNo="1" devices="tripinfo_veh26 routing_veh26" vType="veh_passenger" speedFactor="0.92" vaporized=""/>
    <tripinfo id="veh24" depart="22.00" departLane="749313693#0_1" departPos="5.10" departSpeed="22.94" departDelay="0.40" arrival="108.00" arrivalLane="978400260#2_1" arrivalPos="50.09" arrivalSpeed="22.33" duration="86.00" routeLength="508.49" waitingTime="50.00" waitingCount="2" stopTime="0.00" timeLoss="63.35" rerouteNo="1" devices="tripinfo_veh24 routing_veh24" vType="veh_passenger" speedFactor="0.83" vaporized=""/>
    <tripinfo id="veh41" depart="37.00" departLane="749313693#0_1" departPos="5.10" departSpeed="26.59" departDelay="0.11" arrival="108.00" arrivalLane="978400260#2_2" arrivalPos="50.09" arrivalSpeed="25.63" duration="71.00" routeLength="508.49" waitingTime="37.00" waitingCount="2" stopTime="0.00" timeLoss="51.50" rerouteNo="1" devices="tripinfo_veh41 routing_veh41" vType="veh_passenger" speedFactor="0.96" vaporized=""/>
    <tripinfo id="veh68" depart="62.00" departLane="749313693#0_1" departPos="5.10" departSpeed="28.89" departDelay="0.81" arrival="109.00" arrivalLane="978400260#2_1" arrivalPos="50.09" arrivalSpeed="23.62" duration="47.00" routeLength="508.49" waitingTime="14.00" waitingCount="1" stopTime="0.00" timeLoss="29.40" rerouteNo="1" devices="tripinfo_veh68 routing_veh68" vType="veh_passenger" speedFactor="1.04" vaporized=""/>
    <tripinfo id="veh101" depart="91.00" departLane="757092064#0_0" departPos="5.10" departSpeed="0.00" departDelay="0.12" arrival="110.00" arrivalLane="978400260#2_0" arrivalPos="50.09" arrivalSpeed="25.52" duration="19.00" routeLength="290.21" waitingTime="0.00" waitingCount="0" stopTime="0.00" timeLoss="7.21" rerouteNo="1" devices="tripinfo_veh101 routing_veh101" vType="veh_passenger" speedFactor="0.96" vaporized=""/>
    <tripinfo id="veh53" depart="48.00" departLane="978400306#0_0" departPos="5.10" departSpeed="30.44" departDelay="0.31" arrival="113.00" arrivalLane="563175146#0_1" arrivalPos="187.82" arrivalSpeed="29.32" duration="65.00" routeLength="539.12" waitingTime="34.00" waitingCount="1" stopTime="0.00" timeLoss="46.79" rerouteNo="1" devices="tripinfo_veh53 routing_veh53" vType="veh_passenger" speedFactor="1.10" vaporized=""/>
    <tripinfo id="veh51" depart="46.00" departLane="978400306#0_0" departPos="5.10" departSpeed="32.47" departDelay="0.11" arrival="114.00" arrivalLane="563175146#0_0" arrivalPos="187.82" arrivalSpeed="31.06" duration="68.00" routeLength="539.12" waitingTime="40.00" waitingCount="1" stopTime="0.00" timeLoss="50.29" rerouteNo="1" devices="tripinfo_veh51 routing_veh51" vType="veh_passenger" speedFactor="1.17" vaporized=""/>
    <tripinfo id="veh74" depart="67.00" departLane="978400306#2-AddedOffRampEdge_2" departPos="5.10" departSpeed="0.00" departDelay="0.42" arrival="114.00" arrivalLane="563175146#0_2" arrivalPos="187.82" arrivalSpeed="26.16" duration="47.00" routeLength="370.47" waitingTime="16.00" waitingCount="1" stopTime="0.00" timeLoss="32.22" rerouteNo="1" devices="tripinfo_veh74 routing_veh74" vType="veh_passenger" speedFactor="0.96" vaporized=""/>
    <tripinfo id="veh56" depart="51.00" departLane="1291636131_0" departPos="5.10" departSpeed="12.49" departDelay="0.61" arrival="116.00" arrivalLane="978400260#0-AddedOffRampEdge_3" arrivalPos="94.35" arrivalSpeed="23.95" duration="65.00" routeLength="593.88" waitingTime="22.00" waitingCount="1" stopTime="0.00" timeLoss="38.33" rerouteNo="1" devices="tripinfo_veh56 routing_veh56" vType="veh_passenger" speedFactor="0.90" vaporized=""/>
    <tripinfo id="veh21" depart="19.00" departLane="749313693#0_0" departPos="5.10" departSpeed="28.06" departDelay="0.10" arrival="119.00" arrivalLane="1125782445#0_0" arrivalPos="91.41" arrivalSpeed="12.89" duration="100.00" routeLength="586.11" waitingTime="53.00" waitingCount="2" stopTime="0.00" timeLoss="73.53" rerouteNo="1" devices="tripinfo_veh21 routing_veh21" vType="veh_passenger" speedFactor="1.01" vaporized=""/>
    <tripinfo id="veh50" depart="45.00" departLane="362347492_1" departPos="5.10" departSpeed="23.75" departDelay="0.01" arrival="124.00" arrivalLane="978400303#0_1" arrivalPos="236.03" arrivalSpeed="22.92" duration="79.00" routeLength="494.91" waitingTime="43.00" waitingCount="2" stopTime="0.00" timeLoss="57.58" rerouteNo="1" devices="tripinfo_veh50 routing_veh50" vType="veh_passenger" speedFactor="0.85" vaporized=""/>
    <tripinfo id="veh73" depart="66.00" departLane="362347492_0" departPos="5.10" departSpeed="29.33" departDelay="0.32" arrival="124.00" arrivalLane="978400303#4_0" arrivalPos="38.36" arrivalSpeed="28.44" duration="58.00" routeLength="547.73" waitingTime="23.00" waitingCount="2" stopTime="0.00" timeLoss="39.31" rerouteNo="1" devices="tripinfo_veh73 routing_veh73" vType="veh_passenger" speedFactor="1.06" vaporized=""/>
    <tripinfo id="veh57" depart="52.00" departLane="362347492_1" departPos="5.10" departSpeed="31.74" departDelay="0.71" arrival="125.00" arrivalLane="978400303#4_3" arrivalPos="38.36" arrivalSpeed="30.77" duration="73.00" routeLength="547.73" waitingTime="37.00" waitingCount="2" stopTime="0.00" timeLoss="55.08" rerouteNo="1" devices="tripinfo_veh57 routing_veh57" vType="veh_passenger" speedFactor="1.14" vaporized=""/>
    <tripinfo id="veh49" depart="45.00" departLane="362347492_0" departPos="5.10" departSpeed="23.62" departDelay="0.91" arrival="126.00" arrivalLane="978400303#4_0" arrivalPos="38.36" arrivalSpeed="22.35" duration="81.00" routeLength="547.73" waitingTime="43.00" waitingCount="2" stopTime="0.00" timeLoss="57.62" rerouteNo="1" devices="tripinfo_veh49 routing_veh49" vType="veh_passenger" speedFactor="0.85" vaporized=""/>
    <tripinfo id="veh54" depart="49.00" departLane="362347492_0" departPos="5.10" departSpeed="27.87" departDelay="0.41" arrival="126.00" arrivalLane="978400260#2_0" arrivalPos="50.09" arrivalSpeed="26.89" duration="77.00" routeLength="497.42" waitingTime="41.00" waitingCount="2" stopTime="0.00" timeLoss="57.83" rerouteNo="1" devices="tripinfo_veh54 routing_veh54" vType="veh_passenger" speedFactor="1.00" vaporized=""/>
    <tripinfo id="veh85" depart="77.00" departLane="362347492_1" departPos="5.10" departSpeed="27.11" departDelay="0.52" arrival="127.00" arrivalLane="978400303#4_3" arrivalPos="38.36" arrivalSpeed="26.72" duration="50.00" routeLength="547.73" waitingTime="18.00" waitingCount="1" stopTime="0.00" timeLoss="29.45" rerouteNo="1" devices="tripinfo_veh85 routing_veh85" vType="veh_passenger" speedFactor="0.98" vaporized=""/>
    <tripinfo id="veh76" depart="72.00" departLane="757373594_2" departPos="5.10" departSpeed="0.00" departDelay="3.62" arrival="128.00" arrivalLane="978400303#4_2" arrivalPos="38.36" arrivalSpeed="27.52" duration="56.00" routeLength="417.72" waitingTime="21.00" waitingCount="1" stopTime="0.00" timeLoss="41.20" rerouteNo="1" devices="tripinfo_veh76 routing_veh76" vType="veh_passenger" speedFactor="1.03" vaporized=""/>