<?xml version="1.0" encoding="UTF-8"?>

<!-- generated on 2026-03-08 13:02:23 by Eclipse SUMO GUI Version 1.22.0
<sumoConfiguration xmlns:xsi="http://www.w3.org/2001/XMLSchema-instance" xsi:noNamespaceSchemaLocation="http://sumo.dlr.de/xsd/sumoConfiguration.xsd">

    <input>
        <net-file value="osm.net.xml.gz"/>
        <route-files value="osm.passenger.trips.xml"/>
        <additional-files value="osm.poly.xml.gz,output.add.xml"/>
    </input>

    <output>
        <tripinfo-output value="tripinfos.xml"/>
        <statistic-output value="stats.xml"/>
    </output>

    <processing>
        <ignore-route-errors value="true"/>
        <time-to-teleport value="-1"/>
        <waiting-time-memory value="1000"/>
        <tls.actuated.jam-threshold value="30"/>
    </processing>

    <routing>
        <device.rerouting.adaptation-steps value="18"/>
        <device.rerouting.adaptation-interval value="10"/>
    </routing>

    <report>
        <verbose value="true"/>
        <duration-log.statistics value="true"/>
        <no-step-log value="true"/>
    </report>

    <traci_server>
        <remote-port value="53752"/>
    </traci_server>

    <random_number>
        <seed value="22670"/>
    </random_number>

</sumoConfiguration>
-->

<tripinfos xmlns:xsi="http://www.w3.org/2001/XMLSchema-instance" xsi:noNamespaceSchemaLocation="http://sumo.dlr.de/xsd/tripinfo_file.xsd">
    <tripinfo id="veh2" depart="2.00" departLane="1053267668_0" departPos="5.10" departSpeed="29.34" departDelay="0.20" arrival="18.00" arrivalLane="749988360#2_1" arrivalPos="69.80" arrivalSpeed="29.22" duration="16.00" routeLength="442.89" waitingTime="0.00" waitingCount="0" stopTime="0.00" timeLoss="0.31" rerouteNo="1" devices="tripinfo_veh2 routing_veh2" vType="veh_passenger" speedFactor="1.06" vaporized=""/>
    <tripinfo id="veh1" depart="1.00" departLane="1053267668_2" departPos="5.10" departSpeed="30.37" departDelay="0.10" arrival="24.00" arrivalLane="563175146#0_2" arrivalPos="187.82" arrivalSpeed="29.41" duration="23.00" routeLength="517.75" waitingTime="0.00" waitingCount="0" stopTime="0.00" timeLoss="3.66" rerouteNo="1" devices="tripinfo_veh1 routing_veh1" vType="veh_passenger" speedFactor="1.09" vaporized=""/>
    <tripinfo id="veh10" depart="9.00" departLane="1053267668_0" departPos="5.10" departSpeed="15.82" departDelay="0.00" arrival="25.00" arrivalLane="749988360#2_2" arrivalPos="69.80" arrivalSpeed="34.76" duration="16.00" routeLength="442.89" waitingTime="0.00" waitingCount="0" stopTime="0.00" timeLoss="3.26" rerouteNo="1" devices="tripinfo_veh10 routing_veh10" vType="veh_passenger" speedFactor="1.28" vaporized=""/>
    <tripinfo id="veh12" depart="11.00" departLane="1053267668_0" departPos="5.10" departSpeed="17.29" departDelay="0.20" arrival="29.00" arrivalLane="749988360#2_2" arrivalPos="69.80" arrivalSpeed="28.95" duration="18.00" routeLength="442.89" waitingTime="0.00" waitingCount="0" stopTime="0.00" timeLoss="2.73" rerouteNo="1" devices="tripinfo_veh12 routing_veh12" vType="veh_passenger" speedFactor="1.04" vaporized=""/>
    <tripinfo id="veh9" depart="9.00" departLane="1053267667#1-AddedOnRampEdge_1" departPos="5.10" departSpeed="0.00" departDelay="0.90" arrival="30.00" arrivalLane="749988360#2_1" arrivalPos="69.80" arrivalSpeed="29.85" duration="21.00" routeLength="399.12" waitingTime="0.00" waitingCount="0" stopTime="0.00" timeLoss="7.28" rerouteNo="1" devices="tripinfo_veh9 routing_veh9" vType="veh_passenger" speedFactor="1.10" vaporized=""/>
    <tripinfo id="veh17" depart="16.00" departLane="1053267668_0" departPos="5.10" departSpeed="28.13" departDelay="0.70" arrival="33.00" arrivalLane="749988360#2_1" arrivalPos="69.80" arrivalSpeed="27.29" duration="17.00" routeLength="442.89" waitingTime="0.00" waitingCount="0" stopTime="0.00" timeLoss="0.39" rerouteNo="1" devices="tripinfo_veh17 routing_veh17" vType="veh_passenger" speedFactor="1.01" vaporized=""/>
    <tripinfo id="veh15" depart="14.00" departLane="1053267668_2" departPos="5.10" departSpeed="31.18" departDelay="0.50" arrival="36.00" arrivalLane="563175146#0_2" arrivalPos="187.82" arrivalSpeed="30.04" duration="22.00" routeLength="517.75" waitingTime="0.00" waitingCount="0" stopTime="0.00" timeLoss="3.67" rerouteNo="1" devices="tripinfo_veh15 routing_veh15" vType="veh_passenger" speedFactor="1.12" vaporized=""/>
    <tripinfo id="veh30" depart="27.00" departLane="1053267668_0" departPos="5.10" departSpeed="17.54" departDelay="0.01" arrival="40.00" arrivalLane="1053267667#1_1" arrivalPos="132.55" arrivalSpeed="23.56" duration="13.00" routeLength="274.03" waitingTime="0.00" waitingCount="0" stopTime="0.00" timeLoss="0.92" rerouteNo="1" devices="tripinfo_veh30 routing_veh30" vType="veh_passenger" speedFactor="0.85" vaporized=""/>
    <tripinfo id="veh33" depart="30.00" departLane="978400303#0_0" departPos="5.10" departSpeed="0.00" departDelay="0.31" arrival="46.00" arrivalLane="978400303#4_0" arrivalPos="38.36" arrivalSpeed="30.79" duration="16.00" routeLength="283.75" waitingTime="0.00" waitingCount="0" stopTime="0.00" timeLoss="6.95" rerouteNo="0" devices="tripinfo_veh33 routing_veh33" vType="veh_passenger" speedFactor="1.13" vaporized=""/>
    <tripinfo id="veh23" depart="21.00" departLane="1053267668_2" departPos="5.10" departSpeed="25.44" departDelay="0.30" arrival="47.00" arrivalLane="563175146#0_2" arrivalPos="187.82" arrivalSpeed="24.39" duration="26.00" routeLength="517.75" waitingTime="0.00" waitingCount="0" stopTime="0.00" timeLoss="3.61" rerouteNo="1" devices="tripinfo_veh23 routing_veh23" vType="veh_passenger" speedFactor="0.92" vaporized=""/>
    <tripinfo id="veh36" depart="33.00" departLane="978400303#0_1" departPos="5.10" departSpeed="0.00" departDelay="0.61" arrival="50.00" arrivalLane="978400303#4_1" arrivalPos="38.36" arrivalSpeed="29.47" duration="17.00" routeLength="283.75" waitingTime="0.00" waitingCount="0" stopTime="0.00" timeLoss="6.70" rerouteNo="0" devices="tripinfo_veh36 routing_veh36" vType="veh_passenger" speedFactor="1.08" vaporized=""/>
    <tripinfo id="veh7" depart="7.00" departLane="749313693#0_0" departPos="5.10" departSpeed="28.31" departDelay="0.70" arrival="52.00" arrivalLane="563175146#0_0" arrivalPos="187.82" arrivalSpeed="27.97" duration="45.00" routeLength="376.11" waitingTime="20.00" waitingCount="1" stopTime="0.00" timeLoss="30.14" rerouteNo="0" devices="tripinfo_veh7 routing_veh7" vType="veh_passenger" speedFactor="1.02" vaporized=""/>
    <tripinfo id="veh3" depart="3.00" departLane="749313693#0_0" departPos="5.10" departSpeed="27.91" departDelay="0.30" arrival="53.00" arrivalLane="978400260#0-AddedOffRampEdge_0" arrivalPos="94.35" arrivalSpeed="26.96" duration="50.00" routeLength="455.13" waitingTime="24.00" waitingCount="1" stopTime="0.00" timeLoss="33.09" rerouteNo="1" devices="tripinfo_veh3 routing_veh3" vType="veh_passenger" speedFactor="1.00" vaporized=""/>
    <tripinfo id="veh22" depart="20.00" departLane="749313693#0_2" departPos="5.10" departSpeed="29.77" departDelay="0.20" arrival="55.00" arrivalLane="978400260#2_1" arrivalPos="50.09" arrivalSpeed="28.52" duration="35.00" routeLength="508.49" waitingTime="7.00" waitingCount="1" stopTime="0.00" timeLoss="17.44" rerouteNo="1" devices="tripinfo_veh22 routing_veh22" vType="veh_passenger" speedFactor="1.07" vaporized=""/>
    <tripinfo id="veh6" depart="6.00" departLane="978400306#0_0" departPos="5.10" departSpeed="27.63" departDelay="0.60" arrival="56.00" arrivalLane="563175146#0_0" arrivalPos="187.82" arrivalSpeed="26.72" duration="50.00" routeLength="539.12" waitingTime="21.00" waitingCount="1" stopTime="0.00" timeLoss="30.47" rerouteNo="1" devices="tripinfo_veh6 routing_veh6" vType="veh_passenger" speedFactor="0.99" vaporized=""/>
    <tripinfo id="veh13" depart="12.00" departLane="749313693#0_1" departPos="5.10" departSpeed="26.29" departDelay="0.30" arrival="56.00" arrivalLane="978400260#2_1" arrivalPos="50.09" arrivalSpeed="25.55" duration="44.00" routeLength="508.49" waitingTime="14.00" waitingCount="1" stopTime="0.00" timeLoss="23.71" rerouteNo="1" devices="tripinfo_veh13 routing_veh13" vType="veh_passenger" speedFactor="0.95" vaporized=""/>
    <tripinfo id="veh11" depart="10.00" departLane="978400306#0_0" departPos="5.10" departSpeed="18.26" departDelay="0.10" arrival="57.00" arrivalLane="563175146#0_1" arrivalPos="187.82" arrivalSpeed="26.58" duration="47.00" routeLength="539.12" waitingTime="14.00" waitingCount="1" stopTime="0.00" timeLoss="26.89" rerouteNo="1" devices="tripinfo_veh11 routing_veh11" vType="veh_passenger" speedFactor="0.98" vaporized=""/>
    <tripinfo id="veh18" depart="17.00" departLane="978400306#0_0" departPos="5.10" departSpeed="27.92" departDelay="0.80" arrival="57.00" arrivalLane="563175146#0_2" arrivalPos="187.82" arrivalSpeed="27.79" duration="40.00" routeLength="539.12" waitingTime="7.00" waitingCount="1" stopTime="0.00" timeLoss="20.17" rerouteNo="1" devices="tripinfo_veh18 routing_veh18" vType="veh_passenger" speedFactor="1.00" vaporized=""/>
    <tripinfo id="veh24" depart="22.00" departLane="749313693#0_1" departPos="5.10" departSpeed="28.90" departDelay="0.40" arrival="57.00" arrivalLane="978400260#2_1" arrivalPos="50.09" arrivalSpeed="28.46" duration="35.00" routeLength="508.49" waitingTime="5.00" waitingCount="1" stopTime="0.00" timeLoss="16.99" rerouteNo="1" devices="tripinfo_veh24 routing_veh24" vType="veh_passenger" speedFactor="1.04" vaporized=""/>
    <tripinfo id="veh37" depart="34.00" departLane="978400306#0_0" departPos="5.10" departSpeed="30.60" departDelay="0.71" arrival="58.00" arrivalLane="563175146#0_2" arrivalPos="187.82" arrivalSpeed="28.33" duration="24.00" routeLength="539.12" waitingTime="0.00" waitingCount="0" stopTime="0.00" timeLoss="6.35" rerouteNo="1" devices="tripinfo_veh37 routing_veh37" vType="veh_passenger" speedFactor="1.10" vaporized=""/>
    <tripinfo id="veh5" depart="5.00" departLane="1291636131_0" departPos="5.10" departSpeed="12.69" departDelay="0.50" arrival="59.00" arrivalLane="563175146#0_0" arrivalPos="187.82" arrivalSpeed="25.18" duration="54.00" routeLength="529.53" waitingTime="15.00" waitingCount="1" stopTime="0.00" timeLoss="30.37" rerouteNo="1" devices="tripinfo_veh5 routing_veh5" vType="veh_passenger" speedFactor="0.91" vaporized=""/>
    <tripinfo id="veh25" depart="23.00" departLane="978400306#0_0" departPos="5.10" departSpeed="24.26" departDelay="0.51" arrival="59.00" arrivalLane="563175146#0_1" arrivalPos="187.82" arrivalSpeed="23.79" duration="36.00" routeLength="539.12" waitingTime="2.00" waitingCount="1" stopTime="0.00" timeLoss="13.39" rerouteNo="1" devices="tripinfo_veh25 routing_veh25" vType="veh_passenger" speedFactor="0.87" vaporized=""/>
    <tripinfo id="veh29" depart="27.00" departLane="978400306#0_0" departPos="5.10" departSpeed="27.59" departDelay="0.91" arrival="60.00" arrivalLane="563175146#0_0" arrivalPos="187.82" arrivalSpeed="25.46" duration="33.00" routeLength="539.12" waitingTime="1.00" waitingCount="1" stopTime="0.00" timeLoss="13.37" rerouteNo="1" devices="tripinfo_veh29 routing_veh29" vType="veh_passenger" speedFactor="0.99" vaporized=""/>
    <tripinfo id="veh4" depart="4.00" departLane="978400306#0_3" departPos="5.10" departSpeed="32.76" departDelay="0.40" arrival="61.00" arrivalLane="978400260#2_2" arrivalPos="50.09" arrivalSpeed="32.42" duration="57.00" routeLength="654.50" waitingTime="23.00" waitingCount="1" stopTime="0.00" timeLoss="36.32" rerouteNo="1" devices="tripinfo_veh4 routing_veh4" vType="veh_passenger" speedFactor="1.18" vaporized=""/>
    <tripinfo id="veh38" depart="36.00" departLane="978400306#2_1" departPos="5.10" departSpeed="0.00" departDelay="1.81" arrival="61.00" arrivalLane="563175146#0_1" arrivalPos="187.82" arrivalSpeed="30.53" duration="25.00" routeLength="478.81" waitingTime="0.00" waitingCount="0" stopTime="0.00" timeLoss="8.75" rerouteNo="1" devices="tripinfo_veh38 routing_veh38" vType="veh_passenger" speedFactor="1.10" vaporized=""/>
    <tripinfo id="veh28" depart="26.00" departLane="978400306#0_3" departPos="5.10" departSpeed="23.05" departDelay="0.81" arrival="65.00" arrivalLane="978400260#2_2" arrivalPos="50.09" arrivalSpeed="22.41" duration="39.00" routeLength="654.50" waitingTime="1.00" waitingCount="1" stopTime="0.00" timeLoss="9.87" rerouteNo="1" devices="tripinfo_veh28 routing_veh28" vType="veh_passenger" speedFactor="0.83" vaporized=""/>
    <tripinfo id="veh19" depart="18.00" departLane="1053274595#0_0" departPos="5.10" departSpeed="15.03" departDelay="0.90" arrival="67.00" arrivalLane="749988360#2_2" arrivalPos="69.80" arrivalSpeed="26.17" duration="49.00" routeLength="593.09" waitingTime="6.00" waitingCount="1" stopTime="0.00" timeLoss="23.01" rerouteNo="1" devices="tripinfo_veh19 routing_veh19" vType="veh_passenger" speedFactor="1.08" vaporized=""/>
    <tripinfo id="veh26" depart="24.00" departLane="1291636131_0" departPos="5.10" departSpeed="14.20" departDelay="0.61" arrival="67.00" arrivalLane="978400260#2_2" arrivalPos="50.09" arrivalSpeed="27.88" duration="43.00" routeLength="647.24" waitingTime="0.00" waitingCount="0" stopTime="0.00" timeLoss="17.15" rerouteNo="1" devices="tripinfo_veh26 routing_veh26" vType="veh_passenger" speedFactor="1.02" vaporized=""/>
    <tripinfo id="veh27" depart="25.00" departLane="1053267667#1-AddedOnRampEdge_1" departPos="5.10" departSpeed="0.00" departDelay="0.71" arrival="67.00" arrivalLane="749988360#2_1" arrivalPos="69.80" arrivalSpeed="23.65" duration="42.00" routeLength="399.12" waitingTime="9.00" waitingCount="1" stopTime="0.00" timeLoss="30.43" rerouteNo="1" devices="tripinfo_veh27 routing_veh27" vType="veh_passenger" speedFactor="1.25" vaporized=""/>
    <tripinfo id="veh40" depart="36.00" departLane="1053267668_0" departPos="5.10" departSpeed="21.99" departDelay="0.01" arrival="69.00" arrivalLane="749988360#2_2" arrivalPos="69.80" arrivalSpeed="25.37" duration="33.00" routeLength="442.89" waitingTime="3.00" waitingCount="1" stopTime="0.00" timeLoss="14.96" rerouteNo="1" devices="tripinfo_veh40 routing_veh40" vType="veh_passenger" speedFactor="0.93" vaporized=""/>
    <tripinfo id="veh42" depart="38.00" departLane="1053267668_0" departPos="5.10" departSpeed="22.30" departDelay="0.21" arrival="69.00" arrivalLane="749988360#2_3" arrivalPos="69.80" arrivalSpeed="28.91" duration="31.00" routeLength="442.89" waitingTime="0.00" waitingCount="0" stopTime="0.00" timeLoss="15.01" rerouteNo="1" devices="tripinfo_veh42 routing_veh42" vType="veh_passenger" speedFactor="1.05" vaporized=""/>
    <tripinfo id="veh14" depart="13.00" departLane="1053274595#0_0" departPos="5.10" departSpeed="13.74" departDelay="0.40" arrival="70.00" arrivalLane="563175146#0_2" arrivalPos="187.82" arrivalSpeed="27.39" duration="57.00" routeLength="667.95" waitingTime="8.00" waitingCount="1" stopTime="0.00" timeLoss="23.93" rerouteNo="1" devices="tripinfo_veh14 routing_veh14" vType="veh_passenger" speedFactor="0.99" vaporized=""/>
    <tripinfo id="veh49" depart="45.00" departLane="1053267668_0" departPos="5.10" departSpeed="23.85" departDelay="0.91" arrival="70.00" arrivalLane="749988360#2_2" arrivalPos="69.80" arrivalSpeed="22.78" duration="25.00" routeLength="442.89" waitingTime="0.00" waitingCount="0" stopTime="0.00" timeLoss="6.22" rerouteNo="1" devices="tripinfo_veh49 routing_veh49" vType="veh_passenger" speedFactor="0.86" vaporized=""/>
    <tripinfo id="veh58" depart="53.00" departLane="1053267667#1_1" departPos="5.10" departSpeed="0.00" departDelay="0.81" arrival="72.00" arrivalLane="749988360#2_2" arrivalPos="69.80" arrivalSpeed="27.47" duration="19.00" routeLength="296.31" waitingTime="0.00" waitingCount="0" stopTime="0.00" timeLoss="7.54" rerouteNo="1" devices="tripinfo_veh58 routing_veh58" vType="veh_passenger" speedFactor="0.99" vaporized=""/>
    <tripinfo id="veh57" depart="52.00" departLane="1053267668_0" departPos="5.10" departSpeed="25.91" departDelay="0.71" arrival="73.00" arrivalLane="749988360#2_1" arrivalPos="69.80" arrivalSpeed="24.61" duration="21.00" routeLength="442.89" waitingTime="0.00" waitingCount="0" stopTime="0.00" timeLoss="3.54" rerouteNo="1" devices="tripinfo_veh57 routing_veh57" vType="veh_passenger" speedFactor="0.93" vaporized=""/>
    <tripinfo id="veh34" depart="31.00" departLane="978400306#0_3" departPos="5.10" departSpeed="18.26" departDelay="0.41" arrival="74.00" arrivalLane="1125782445#0_0" arrivalPos="91.41" arrivalSpeed="13.26" duration="43.00" routeLength="732.12" waitingTime="0.00" waitingCount="0" stopTime="0.00" timeLoss="10.26" rerouteNo="1" devices="tripinfo_veh34 routing_veh34" vType="veh_passenger" speedFactor="0.98" vaporized=""/>
    <tripinfo id="veh32" depart="29.00" departLane="1053267667#1-AddedOnRampEdge_1" departPos="5.10" departSpeed="0.00" departDelay="0.21" arrival="75.00" arrivalLane="978400303#4_0" arrivalPos="38.36" arrivalSpeed="27.14" duration="46.00" routeLength="566.30" waitingTime="7.00" waitingCount="1" stopTime="0.00" timeLoss="24.97" rerouteNo="1" devices="tripinfo_veh32 routing_veh32" vType="veh_passenger" speedFactor="1.01" vaporized=""/>
    <tripinfo id="veh35" depart="32.00" departLane="1053267668_0" departPos="5.10" departSpeed="18.81" departDelay="0.51" arrival="77.00" arrivalLane="978400303#4_0" arrivalPos="38.36" arrivalSpeed="27.02" duration="45.00" routeLength="610.07" waitingTime="6.00" waitingCount="1" stopTime="0.00" timeLoss="22.19" rerouteNo="1" devices="tripinfo_veh35 routing_veh35" vType="veh_passenger" speedFactor="1.01" vaporized=""/>
    <tripinfo id="veh8" depart="8.00" departLane="749662139_0" departPos="5.10" departSpeed="0.00" departDelay="0.80" arrival="86.00" arrivalLane="978400303#4_1" arrivalPos="38.36" arrivalSpeed="29.02" duration="78.00" routeLength="438.72" waitingTime="47.00" waitingCount="1" stopTime="0.00" timeLoss="63.37" rerouteNo="1" devices="tripinfo_veh8 routing_veh8" vType="veh_passenger" speedFactor="1.09" vaporized=""/>
    <tripinfo id="veh52" depart="47.00" departLane="362347492_1" departPos="5.10" departSpeed="29.03" departDelay="0.21" arrival="87.00" arrivalLane="978400303#4_3" arrivalPos="38.36" arrivalSpeed="28.49" duration="40.00" routeLength="547.73" waitingTime="8.00" waitingCount="1" stopTime="0.00" timeLoss="20.39" rerouteNo="1" devices="tripinfo_veh52 routing_veh52" vType="veh_passenger" speedFactor="1.05" vaporized=""/>
    <tripinfo id="veh16" depart="15.00" departLane="362347492_0" departPos="5.10" departSpeed="26.64" departDelay="0.60" arrival="88.00" arrivalLane="978400260#2_0" arrivalPos="50.09" arrivalSpeed="26.38" duration="73.00" routeLength="497.42" waitingTime="42.00" waitingCount="1" stopTime="0.00" timeLoss="53.02" rerouteNo="1" devices="tripinfo_veh16 routing_veh16" vType="veh_passenger" speedFactor="0.96" vaporized=""/>
    <tripinfo id="veh50" depart="45.00" departLane="362347492_0" departPos="5.10" departSpeed="25.32" departDelay="0.01" arrival="88.00" arrivalLane="978400303#0_2" arrivalPos="236.03" arrivalSpeed="25.10" duration="43.00" routeLength="494.91" waitingTime="9.00" waitingCount="1" stopTime="0.00" timeLoss="22.56" rerouteNo="1" devices="tripinfo_veh50 routing_veh50" vType="veh_passenger" speedFactor="0.91" vaporized=""/>
    <tripinfo id="veh20" depart="18.00" departLane="362347492_1" departPos="5.10" departSpeed="24.32" departDelay="0.00" arrival="89.00" arrivalLane="978400303#4_1" arrivalPos="38.36" arrivalSpeed="23.97" duration="71.00" routeLength="547.73" waitingTime="37.00" waitingCount="1" stopTime="0.00" timeLoss="47.57" rerouteNo="1" devices="tripinfo_veh20 routing_veh20" vType="veh_passenger" speedFactor="0.88" vaporized=""/>
    <tripinfo id="veh60" depart="54.00" departLane="1053267668_0" departPos="5.10" departSpeed="27.72" departDelay="0.01" arrival="89.00" arrivalLane="-359247809#2_0" arrivalPos="69.06" arrivalSpeed="18.36" duration="35.00" routeLength="635.35" waitingTime="0.00" waitingCount="0" stopTime="0.00" timeLoss="9.01" rerouteNo="1" devices="tripinfo_veh60 routing_veh60" vType="veh_passenger" speedFactor="1.02" vaporized=""/>
    <tripinfo id="veh66" depart="60.00" departLane="1053274595#0_0" departPos="5.10" departSpeed="14.33" departDelay="0.61" arrival="90.00" arrivalLane="1053267667#1_1" arrivalPos="132.55" arrivalSpeed="11.07" duration="30.00" routeLength="424.23" waitingTime="0.00" waitingCount="0" stopTime="0.00" timeLoss="8.54" rerouteNo="1" devices="tripinfo_veh66 routing_veh66" vType="veh_passenger" speedFactor="1.03" vaporized=""/>
    <tripinfo id="veh44" depart="40.00" departLane="362347492_0" departPos="5.10" departSpeed="28.58" departDelay="0.41" arrival="91.00" arrivalLane="978400303#4_1" arrivalPos="38.36" arrivalSpeed="27.67" duration="51.00" routeLength="547.73" waitingTime="16.00" waitingCount="1" stopTime="0.00" timeLoss="31.14" rerouteNo="1" devices="tripinfo_veh44 routing_veh44" vType="veh_passenger" speedFactor="1.03" vaporized=""/>
    <tripinfo id="veh73" depart="66.00" departLane="362347492_0" departPos="5.10" departSpeed="30.98" departDelay="0.32" arrival="91.00" arrivalLane="978400303#4_2" arrivalPos="38.36" arrivalSpeed="29.90" duration="25.00" routeLength="547.73" waitingTime="0.00" waitingCount="0" stopTime="0.00" timeLoss="6.72" rerouteNo="1" devices="tripinfo_veh73 routing_veh73" vType="veh_passenger" speedFactor="1.12" vaporized=""/>
    <tripinfo id="veh54" depart="49.00" departLane="362347492_0" departPos="5.10" departSpeed="29.22" departDelay="0.41" arrival="93.00" arrivalLane="978400260#2_0" arrivalPos="50.09" arrivalSpeed="28.99" duration="44.00" routeLength="497.42" waitingTime="12.00" waitingCount="1" stopTime="0.00" timeLoss="25.42" rerouteNo="1" devices="tripinfo_veh54 routing_veh54" vType="veh_passenger" speedFactor="1.05" vaporized=""/>
    <tripinfo id="veh0" depart="0.00" departLane="362347492_0" departPos="5.10" departSpeed="26.55" departDelay="0.00" arrival="94.00" arrivalLane="-359247809#2_0" arrivalPos="69.06" arrivalSpeed="18.12" duration="94.00" routeLength="573.01" waitingTime="56.00" waitingCount="1" stopTime="0.00" timeLoss="70.46" rerouteNo="1" devices="tripinfo_veh0 routing_veh0" vType="veh_passenger" speedFactor="0.96" vaporized=""/>
    <tripinfo id="veh76" depart="71.00" departLane="757373594_2" departPos="5.10" departSpeed="0.00" departDelay="2.62" arrival="94.00" arrivalLane="978400303#4_1" arrivalPos="38.36" arrivalSpeed="27.37" duration="23.00" routeLength="417.72" waitingTime="0.00" waitingCount="0" stopTime="0.00" timeLoss="6.99" rerouteNo="1" devices="tripinfo_veh76 routing_veh76" vType="veh_passenger" speedFactor="0.99" vaporized=""/>
    <tripinfo id="veh31" depart="28.00" departLane="362347492_0" departPos="5.10" departSpeed="31.15" departDelay="0.11" arrival="99.00" arrivalLane="-359247809#2_0" arrivalPos="69.06" arrivalSpeed="17.70" duration="71.00" routeLength="573.01" waitingTime="30.00" waitingCount="1" stopTime="0.00" timeLoss="50.72" rerouteNo="1" devices="tripinfo_veh31 routing_veh31" vType="veh_passenger" speedFactor="1.12" vaporized=""/>
    <tripinfo id="veh61" depart="55.00" departLane="362347492_0" departPos="5.10" departSpeed="25.72" departDelay="0.11" arrival="99.00" arrivalLane="978400260#2_0" arrivalPos="50.09" arrivalSpeed="24.44" duration="44.00" routeLength="497.42" waitingTime="7.00" waitingCount="1" stopTime="0.00" timeLoss="23.91" rerouteNo="1" devices="tripinfo_veh61 routing_veh61" vType="veh_passenger" speedFactor="0.93" vaporized=""/>
    <tripinfo id="veh47" depart="43.00" departLane="749313693#0_0" departPos="5.10" departSpeed="32.99" departDelay="0.71" arrival="100.00" arrivalLane="563175146#0_0" arrivalPos="187.82" arrivalSpeed="29.14" duration="57.00" routeLength="376.11" waitingTime="32.00" waitingCount="1" stopTime="0.00" timeLoss="44.42" rerouteNo="0" devices="tripinfo_veh47 routing_veh47" vType="veh_passenger" speedFactor="1.19" vaporized=""/>
    <tripinfo id="veh71" depart="64.00" departLane="749313693#0_0" departPos="5.10" departSpeed="28.46" departDelay="0.11" arrival="102.00" arrivalLane="563175146#0_0" arrivalPos="187.82" arrivalSpeed="30.12" duration="38.00" routeLength="376.11" waitingTime="12.00" waitingCount="1" stopTime="0.00" timeLoss="25.82" rerouteNo="0" devices="tripinfo_veh71 routing_veh71" vType="veh_passenger" speedFactor="1.25" vaporized=""/>
    <tripinfo id="veh41" depart="37.00" departLane="749313693#0_2" departPos="5.10" departSpeed="26.47" departDelay="0.11" arrival="103.00" arrivalLane="978400260#2_1" arrivalPos="50.09" arrivalSpeed="26.00" duration="66.00" routeLength="508.49" waitingTime="35.00" waitingCount="1" stopTime="0.00" timeLoss="46.43" rerouteNo="1" devices="tripinfo_veh41 routing_veh41" vType="veh_passenger" speedFactor="0.95" vaporized=""/>
    <tripinfo id="veh55" depart="50.00" departLane="362347492_0" departPos="5.10" departSpeed="26.53" departDelay="0.51" arrival="103.00" arrivalLane="-359247809#2_0" arrivalPos="69.06" arrivalSpeed="18.46" duration="53.00" routeLength="573.01" waitingTime="10.00" waitingCount="1" stopTime="0.00" timeLoss="29.52" rerouteNo="1" devices="tripinfo_veh55 routing_veh55" vType="veh_passenger" speedFactor="0.96" vaporized=""/>
    <tripinfo id="veh67" depart="61.00" departLane="749313693#0_1" departPos="5.10" departSpeed="32.99" departDelay="0.71" arrival="104.00" arrivalLane="978400260#2_2" arrivalPos="50.09" arrivalSpeed="32.31" duration="43.00" routeLength="508.49" waitingTime="14.00" waitingCount="1" stopTime="0.00" timeLoss="27.55" rerouteNo="1" devices="tripinfo_veh67 routing_veh67" vType="veh_passenger" speedFactor="1.20" vaporized=""/>
    <tripinfo id="veh64" depart="58.00" departLane="749313693#0_2" departPos="5.10" departSpeed="23.85" departDelay="0.41" arrival="105.00" arrivalLane="978400260#2_1" arrivalPos="50.09" arrivalSpeed="22.62" duration="47.00" routeLength="508.49" waitingTime="15.00" waitingCount="1" stopTime="0.00" timeLoss="25.04" rerouteNo="1" devices="tripinfo_veh64 routing_veh64" vType="veh_passenger" speedFactor="0.86" vaporized=""/>
    <tripinfo id="veh72" depart="65.00" departLane="749313693#0_0" departPos="5.10" departSpeed="24.72" departDelay="0.21" arrival="105.00" arrivalLane="563175146#0_0" arrivalPos="187.82" arrivalSpeed="23.98" duration="40.00" routeLength="376.11" waitingTime="12.00" waitingCount="1" stopTime="0.00" timeLoss="22.65" rerouteNo="0" devices="tripinfo_veh72 routing_veh72" vType="veh_passenger" speedFactor="0.89" vaporized=""/>
    <tripinfo id="veh68" depart="62.00" departLane="749313693#0_0" departPos="5.10" departSpeed="26.47" departDelay="0.81" arrival="106.00" arrivalLane="978400260#2_1" arrivalPos="50.09" arrivalSpeed="24.63" duration="44.00" routeLength="508.49" waitingTime="12.00" waitingCount="1" stopTime="0.00" timeLoss="24.53" rerouteNo="1" devices="tripinfo_veh68 routing_veh68" vType="veh_passenger" speedFactor="0.95" vaporized=""/>
    <tripinfo id="veh86" depart="78.00" departLane="749313693#0_0" departPos="5.10" departSpeed="28.52" departDelay="0.62" arrival="106.00" arrivalLane="563175146#0_0" arrivalPos="187.82" arrivalSpeed="25.94" duration="28.00" routeLength="376.11" waitingTime="1.00" waitingCount="1" stopTime="0.00" timeLoss="13.25" rerouteNo="0" devices="tripinfo_veh86 routing_veh86" vType="veh_passenger" speedFactor="1.03" vaporized=""/>
    <tripinfo id="veh101" depart="92.00" departLane="757092064#0_0" departPos="5.10" departSpeed="0.00" departDelay="1.12" arrival="109.00" arrivalLane="978400260#2_0" arrivalPos="50.09" arrivalSpeed="28.87" duration="17.00" routeLength="290.21" waitingTime="0.00" waitingCount="0" stopTime="0.00" timeLoss="6.14" rerouteNo="1" devices="tripinfo_veh101 routing_veh101" vType="veh_passenger" speedFactor="1.04" vaporized=""/>
    <tripinfo id="veh21" depart="19.00" departLane="749313693#0_0" departPos="5.10" departSpeed="29.94" departDelay="0.10" arrival="113.00" arrivalLane="1125782445#0_0" arrivalPos="91.41" arrivalSpeed="14.14" duration="94.00" routeLength="586.11" waitingTime="50.00" waitingCount="2" stopTime="0.00" timeLoss="69.08" rerouteNo="1" devices="tripinfo_veh21 routing_veh21" vType="veh_passenger" speedFactor="1.08" vaporized=""/>
    <tripinfo id="veh39" depart="36.00" departLane="978400306#2_2" departPos="5.10" departSpeed="0.00" departDelay="0.91" arrival="113.00" arrivalLane="563175146#0_0" arrivalPos="187.82" arrivalSpeed="29.81" duration="77.00" routeLength="478.81" waitingTime="41.00" waitingCount="1" stopTime="0.00" timeLoss="60.97" rerouteNo="1" devices="tripinfo_veh39 routing_veh39" vType="veh_passenger" speedFactor="1.11" vaporized=""/>
    <tripinfo id="veh74" depart="67.00" departLane="978400306#2-AddedOffRampEdge_2" departPos="5.10" departSpeed="0.00" departDelay="0.42" arrival="113.00" arrivalLane="563175146#0_2" arrivalPos="187.82" arrivalSpeed="31.77" duration="46.00" routeLength="370.47" waitingTime="16.00" waitingCount="1" stopTime="0.00" timeLoss="34.98" rerouteNo="1" devices="tripinfo_veh74 routing_veh74" vType="veh_passenger" speedFactor="1.22" vaporized=""/>
    <tripinfo id="veh62" depart="56.00" departLane="978400306#0_0" departPos="5.10" departSpeed="18.26" departDelay="0.21" arrival="114.00" arrivalLane="563175146#0_0" arrivalPos="187.82" arrivalSpeed="25.86" duration="58.00" routeLength="539.12" waitingTime="24.00" waitingCount="1" stopTime="0.00" timeLoss="36.44" rerouteNo="1" devices="tripinfo_veh62 routing_veh62" vType="veh_passenger" speedFactor="0.93" vaporized=""/>
    <tripinfo id="veh78" depart="71.00" departLane="1291636131_0" departPos="5.10" departSpeed="13.13" departDelay="0.82" arrival="115.00" arrivalLane="563175146#0_1" arrivalPos="187.82" arrivalSpeed="25.56" duration="44.00" routeLength="529.53" waitingTime="4.00" waitingCount="1" stopTime="0.00" timeLoss="21.07" rerouteNo="1" devices="tripinfo_veh78 routing_veh78" vType="veh_passenger" speedFactor="0.95" vaporized=""/>