<?xml version="1.0" encoding="UTF-8"?>

<!-- generated on 2026-03-17 20:39:53 by Eclipse SUMO sumo Version 1.22.0
<sumoConfiguration xmlns:xsi="http://www.w3.org/2001/XMLSchema-instance" xsi:noNamespaceSchemaLocation="http://sumo.dlr.de/xsd/sumoConfiguration.xsd">

    <input>
        <net-file value="osm.net.xml.gz"/>
        <route-files value="osm.passenger.trips.xml"/>
        <additional-files value="osm.poly.xml.gz,output.add.xml"/>
    </input>

    <output>
        <tripinfo-output value="tripinfos.xml"/>
        <statistic-output value="stats.xml"/>
    </output>

    <processing>
        <ignore-route-errors value="true"/>
        <time-to-teleport value="-1"/>
        <waiting-time-memory value="1000"/>
        <tls.actuated.jam-threshold value="30"/>
    </processing>

    <routing>
        <device.rerouting.adaptation-steps value="18"/>
        <device.rerouting.adaptation-interval value="10"/>
    </routing>

    <report>
        <verbose value="true"/>
        <duration-log.statistics value="true"/>
        <no-step-log value="true"/>
    </report>

    <traci_server>
        <remote-port value="52880"/>
    </traci_server>

</sumoConfiguration>
-->

<tripinfos xmlns:xsi="http://www.w3.org/2001/XMLSchema-instance" xsi:noNamespaceSchemaLocation="http://sumo.dlr.de/xsd/tripinfo_file.xsd">
    <tripinfo id="veh2" depart="2.00" departLane="362347492_1" departPos="5.10" departSpeed="28.07" departDelay="0.20" arrival="22.00" arrivalLane="978400303#4_2" arrivalPos="38.36" arrivalSpeed="27.49" duration="20.00" routeLength="547.73" waitingTime="0.00" waitingCount="0" stopTime="0.00" timeLoss="0.47" rerouteNo="1" devices="tripinfo_veh2 routing_veh2" vType="veh_passenger" speedFactor="1.01" vaporized=""/>
    <tripinfo id="veh0" depart="0.00" departLane="362347492_0" departPos="5.10" departSpeed="29.45" departDelay="0.00" arrival="27.00" arrivalLane="-359247809#2_0" arrivalPos="69.06" arrivalSpeed="18.96" duration="27.00" routeLength="573.01" waitingTime="0.00" waitingCount="0" stopTime="0.00" timeLoss="5.64" rerouteNo="1" devices="tripinfo_veh0 routing_veh0" vType="veh_passenger" speedFactor="1.06" vaporized=""/>
    <tripinfo id="veh13" depart="12.00" departLane="749313693#0_1" departPos="5.10" departSpeed="31.19" departDelay="0.30" arrival="35.00" arrivalLane="978400260#2_1" arrivalPos="50.09" arrivalSpeed="30.23" duration="23.00" routeLength="508.49" waitingTime="0.00" waitingCount="0" stopTime="0.00" timeLoss="6.23" rerouteNo="1" devices="tripinfo_veh13 routing_veh13" vType="veh_passenger" speedFactor="1.12" vaporized=""/>
    <tripinfo id="veh3" depart="3.00" departLane="749313693#0_0" departPos="5.10" departSpeed="30.08" departDelay="0.30" arrival="36.00" arrivalLane="978400260#0-AddedOffRampEdge_0" arrivalPos="94.35" arrivalSpeed="29.68" duration="33.00" routeLength="455.13" waitingTime="6.00" waitingCount="1" stopTime="0.00" timeLoss="17.75" rerouteNo="1" devices="tripinfo_veh3 routing_veh3" vType="veh_passenger" speedFactor="1.08" vaporized=""/>
    <tripinfo id="veh7" depart="7.00" departLane="749313693#0_0" departPos="5.10" departSpeed="24.61" departDelay="0.70" arrival="37.00" arrivalLane="563175146#0_0" arrivalPos="187.82" arrivalSpeed="24.15" duration="30.00" routeLength="376.11" waitingTime="2.00" waitingCount="1" stopTime="0.00" timeLoss="13.11" rerouteNo="0" devices="tripinfo_veh7 routing_veh7" vType="veh_passenger" speedFactor="0.89" vaporized=""/>
    <tripinfo id="veh30" depart="27.00" departLane="1053267668_0" departPos="5.10" departSpeed="17.37" departDelay="0.01" arrival="40.00" arrivalLane="1053267667#1_1" arrivalPos="132.55" arrivalSpeed="15.95" duration="13.00" routeLength="274.03" waitingTime="0.00" waitingCount="0" stopTime="0.00" timeLoss="4.53" rerouteNo="1" devices="tripinfo_veh30 routing_veh30" vType="veh_passenger" speedFactor="1.18" vaporized=""/>
    <tripinfo id="veh10" depart="9.00" departLane="362347492_0" departPos="5.10" departSpeed="28.36" departDelay="0.00" arrival="46.00" arrivalLane="978400303#4_1" arrivalPos="38.36" arrivalSpeed="23.95" duration="37.00" routeLength="547.73" waitingTime="3.00" waitingCount="1" stopTime="0.00" timeLoss="18.54" rerouteNo="1" devices="tripinfo_veh10 routing_veh10" vType="veh_passenger" speedFactor="1.09" vaporized=""/>
    <tripinfo id="veh12" depart="11.00" departLane="362347492_1" departPos="5.10" departSpeed="29.09" departDelay="0.20" arrival="46.00" arrivalLane="978400303#4_2" arrivalPos="38.36" arrivalSpeed="27.88" duration="35.00" routeLength="547.73" waitingTime="4.00" waitingCount="1" stopTime="0.00" timeLoss="15.47" rerouteNo="1" devices="tripinfo_veh12 routing_veh12" vType="veh_passenger" speedFactor="1.05" vaporized=""/>
    <tripinfo id="veh24" depart="22.00" departLane="749313693#0_2" departPos="5.10" departSpeed="22.94" departDelay="0.40" arrival="46.00" arrivalLane="978400260#2_2" arrivalPos="50.09" arrivalSpeed="22.92" duration="24.00" routeLength="508.49" waitingTime="0.00" waitingCount="0" stopTime="0.00" timeLoss="1.35" rerouteNo="1" devices="tripinfo_veh24 routing_veh24" vType="veh_passenger" speedFactor="0.83" vaporized=""/>
    <tripinfo id="veh22" depart="20.00" departLane="749313693#0_1" departPos="5.10" departSpeed="27.09" departDelay="0.20" arrival="47.00" arrivalLane="978400260#2_1" arrivalPos="50.09" arrivalSpeed="24.55" duration="27.00" routeLength="508.49" waitingTime="0.00" waitingCount="0" stopTime="0.00" timeLoss="8.10" rerouteNo="1" devices="tripinfo_veh22 routing_veh22" vType="veh_passenger" speedFactor="0.97" vaporized=""/>
    <tripinfo id="veh33" depart="30.00" departLane="978400303#0_0" departPos="5.10" departSpeed="0.00" departDelay="0.31" arrival="47.00" arrivalLane="978400303#4_0" arrivalPos="38.36" arrivalSpeed="30.82" duration="17.00" routeLength="283.75" waitingTime="0.00" waitingCount="0" stopTime="0.00" timeLoss="7.87" rerouteNo="0" devices="tripinfo_veh33 routing_veh33" vType="veh_passenger" speedFactor="1.17" vaporized=""/>
    <tripinfo id="veh8" depart="8.00" departLane="749662139_0" departPos="5.10" departSpeed="0.00" departDelay="0.80" arrival="49.00" arrivalLane="978400303#4_0" arrivalPos="38.36" arrivalSpeed="25.70" duration="41.00" routeLength="438.72" waitingTime="2.00" waitingCount="1" stopTime="0.00" timeLoss="23.68" rerouteNo="1" devices="tripinfo_veh8 routing_veh8" vType="veh_passenger" speedFactor="0.94" vaporized=""/>
    <tripinfo id="veh26" depart="24.00" departLane="749313693#0_0" departPos="5.10" departSpeed="25.48" departDelay="0.61" arrival="49.00" arrivalLane="978400260#2_0" arrivalPos="50.09" arrivalSpeed="24.79" duration="25.00" routeLength="508.49" waitingTime="0.00" waitingCount="0" stopTime="0.00" timeLoss="4.08" rerouteNo="1" devices="tripinfo_veh26 routing_veh26" vType="veh_passenger" speedFactor="0.92" vaporized=""/>
    <tripinfo id="veh21" depart="19.00" departLane="749313693#0_0" departPos="5.10" departSpeed="28.06" departDelay="0.10" arrival="52.00" arrivalLane="1125782445#0_0" arrivalPos="91.41" arrivalSpeed="13.86" duration="33.00" routeLength="586.11" waitingTime="0.00" waitingCount="0" stopTime="0.00" timeLoss="7.35" rerouteNo="1" devices="tripinfo_veh21 routing_veh21" vType="veh_passenger" speedFactor="1.01" vaporized=""/>
    <tripinfo id="veh36" depart="34.00" departLane="978400303#0_3" departPos="5.10" departSpeed="0.00" departDelay="1.61" arrival="52.00" arrivalLane="978400303#4_3" arrivalPos="38.36" arrivalSpeed="26.03" duration="18.00" routeLength="283.75" waitingTime="0.00" waitingCount="0" stopTime="0.00" timeLoss="6.84" rerouteNo="0" devices="tripinfo_veh36 routing_veh36" vType="veh_passenger" speedFactor="0.97" vaporized=""/>
    <tripinfo id="veh5" depart="5.00" departLane="1291636131_0" departPos="5.10" departSpeed="11.54" departDelay="0.50" arrival="54.00" arrivalLane="563175146#0_2" arrivalPos="187.82" arrivalSpeed="22.47" duration="49.00" routeLength="529.53" waitingTime="8.00" waitingCount="1" stopTime="0.00" timeLoss="22.94" rerouteNo="1" devices="tripinfo_veh5 routing_veh5" vType="veh_passenger" speedFactor="0.83" vaporized=""/>
    <tripinfo id="veh11" depart="10.00" departLane="978400306#0_0" departPos="5.10" departSpeed="18.26" departDelay="0.10" arrival="54.00" arrivalLane="563175146#0_1" arrivalPos="187.82" arrivalSpeed="22.01" duration="44.00" routeLength="539.12" waitingTime="12.00" waitingCount="1" stopTime="0.00" timeLoss="24.80" rerouteNo="1" devices="tripinfo_veh11 routing_veh11" vType="veh_passenger" speedFactor="1.03" vaporized=""/>
    <tripinfo id="veh4" depart="4.00" departLane="978400306#0_0" departPos="5.10" departSpeed="28.62" departDelay="0.40" arrival="55.00" arrivalLane="563175146#0_0" arrivalPos="187.82" arrivalSpeed="23.43" duration="51.00" routeLength="539.12" waitingTime="18.00" waitingCount="1" stopTime="0.00" timeLoss="31.47" rerouteNo="1" devices="tripinfo_veh4 routing_veh4" vType="veh_passenger" speedFactor="1.03" vaporized=""/>
    <tripinfo id="veh16" depart="15.00" departLane="362347492_0" departPos="5.10" departSpeed="24.40" departDelay="0.60" arrival="59.00" arrivalLane="978400260#2_0" arrivalPos="50.09" arrivalSpeed="23.35" duration="44.00" routeLength="497.42" waitingTime="8.00" waitingCount="1" stopTime="0.00" timeLoss="21.96" rerouteNo="1" devices="tripinfo_veh16 routing_veh16" vType="veh_passenger" speedFactor="0.88" vaporized=""/>
    <tripinfo id="veh20" depart="18.00" departLane="362347492_2" departPos="5.10" departSpeed="28.28" departDelay="0.00" arrival="59.00" arrivalLane="978400303#4_3" arrivalPos="38.36" arrivalSpeed="28.19" duration="41.00" routeLength="547.73" waitingTime="10.00" waitingCount="1" stopTime="0.00" timeLoss="21.15" rerouteNo="1" devices="tripinfo_veh20 routing_veh20" vType="veh_passenger" speedFactor="1.02" vaporized=""/>
    <tripinfo id="veh17" depart="16.00" departLane="362347492_1" departPos="5.10" departSpeed="26.15" departDelay="0.70" arrival="60.00" arrivalLane="978400303#4_1" arrivalPos="38.36" arrivalSpeed="25.64" duration="44.00" routeLength="547.73" waitingTime="11.00" waitingCount="1" stopTime="0.00" timeLoss="22.47" rerouteNo="1" devices="tripinfo_veh17 routing_veh17" vType="veh_passenger" speedFactor="0.94" vaporized=""/>
    <tripinfo id="veh41" depart="37.00" departLane="749313693#0_0" departPos="5.10" departSpeed="26.59" departDelay="0.11" arrival="60.00" arrivalLane="978400260#2_1" arrivalPos="50.09" arrivalSpeed="26.00" duration="23.00" routeLength="508.49" waitingTime="0.00" waitingCount="0" stopTime="0.00" timeLoss="3.37" rerouteNo="1" devices="tripinfo_veh41 routing_veh41" vType="veh_passenger" speedFactor="0.96" vaporized=""/>
    <tripinfo id="veh47" depart="43.00" departLane="749313693#0_0" departPos="5.10" departSpeed="25.02" departDelay="0.71" arrival="63.00" arrivalLane="563175146#0_0" arrivalPos="187.82" arrivalSpeed="24.79" duration="20.00" routeLength="376.11" waitingTime="0.00" waitingCount="0" stopTime="0.00" timeLoss="2.97" rerouteNo="0" devices="tripinfo_veh47 routing_veh47" vType="veh_passenger" speedFactor="0.90" vaporized=""/>
    <tripinfo id="veh6" depart="6.00" departLane="978400306#0_0" departPos="5.10" departSpeed="29.05" departDelay="0.60" arrival="73.00" arrivalLane="563175146#0_0" arrivalPos="187.82" arrivalSpeed="28.24" duration="67.00" routeLength="539.12" waitingTime="30.00" waitingCount="2" stopTime="0.00" timeLoss="47.60" rerouteNo="1" devices="tripinfo_veh6 routing_veh6" vType="veh_passenger" speedFactor="1.05" vaporized=""/>
    <tripinfo id="veh18" depart="17.00" departLane="978400306#0_0" departPos="5.10" departSpeed="26.01" departDelay="0.80" arrival="73.00" arrivalLane="563175146#0_1" arrivalPos="187.82" arrivalSpeed="25.06" duration="56.00" routeLength="539.12" waitingTime="19.00" waitingCount="2" stopTime="0.00" timeLoss="34.79" rerouteNo="1" devices="tripinfo_veh18 routing_veh18" vType="veh_passenger" speedFactor="0.94" vaporized=""/>
    <tripinfo id="veh29" depart="27.00" departLane="978400306#0_1" departPos="5.10" departSpeed="25.87" departDelay="0.91" arrival="73.00" arrivalLane="563175146#0_2" arrivalPos="187.82" arrivalSpeed="25.60" duration="46.00" routeLength="539.12" waitingTime="13.00" waitingCount="1" stopTime="0.00" timeLoss="24.20" rerouteNo="1" devices="tripinfo_veh29 routing_veh29" vType="veh_passenger" speedFactor="0.93" vaporized=""/>
    <tripinfo id="veh48" depart="44.00" departLane="885403818#1_3" departPos="5.10" departSpeed="0.00" departDelay="0.81" arrival="78.00" arrivalLane="978400260#2_2" arrivalPos="50.09" arrivalSpeed="23.96" duration="34.00" routeLength="387.82" waitingTime="4.00" waitingCount="1" stopTime="0.00" timeLoss="17.41" rerouteNo="1" devices="tripinfo_veh48 routing_veh48" vType="veh_passenger" speedFactor="0.88" vaporized=""/>
    <tripinfo id="veh52" depart="47.00" departLane="362347492_2" departPos="5.10" departSpeed="28.25" departDelay="0.21" arrival="81.00" arrivalLane="978400303#4_3" arrivalPos="38.36" arrivalSpeed="27.28" duration="34.00" routeLength="547.73" waitingTime="0.00" waitingCount="0" stopTime="0.00" timeLoss="13.91" rerouteNo="1" devices="tripinfo_veh52 routing_veh52" vType="veh_passenger" speedFactor="1.02" vaporized=""/>
    <tripinfo id="veh64" depart="58.00" departLane="749313693#0_0" departPos="5.10" departSpeed="26.05" departDelay="0.41" arrival="81.00" arrivalLane="978400260#2_0" arrivalPos="50.09" arrivalSpeed="25.07" duration="23.00" routeLength="508.49" waitingTime="0.00" waitingCount="0" stopTime="0.00" timeLoss="2.56" rerouteNo="1" devices="tripinfo_veh64 routing_veh64" vType="veh_passenger" speedFactor="0.94" vaporized=""/>
    <tripinfo id="veh68" depart="62.00" departLane="749313693#0_2" departPos="5.10" departSpeed="28.89" departDelay="0.81" arrival="81.00" arrivalLane="978400260#2_2" arrivalPos="50.09" arrivalSpeed="27.94" duration="19.00" routeLength="508.49" waitingTime="0.00" waitingCount="0" stopTime="0.00" timeLoss="0.59" rerouteNo="1" devices="tripinfo_veh68 routing_veh68" vType="veh_passenger" speedFactor="1.04" vaporized=""/>
    <tripinfo id="veh40" depart="36.00" departLane="362347492_0" departPos="5.10" departSpeed="28.62" departDelay="0.01" arrival="82.00" arrivalLane="978400303#4_1" arrivalPos="38.36" arrivalSpeed="28.11" duration="46.00" routeLength="547.73" waitingTime="8.00" waitingCount="1" stopTime="0.00" timeLoss="26.32" rerouteNo="1" devices="tripinfo_veh40 routing_veh40" vType="veh_passenger" speedFactor="1.03" vaporized=""/>
    <tripinfo id="veh42" depart="38.00" departLane="362347492_1" departPos="5.10" departSpeed="30.33" departDelay="0.21" arrival="82.00" arrivalLane="978400303#4_2" arrivalPos="38.36" arrivalSpeed="29.84" duration="44.00" routeLength="547.73" waitingTime="9.00" waitingCount="1" stopTime="0.00" timeLoss="25.05" rerouteNo="1" devices="tripinfo_veh42 routing_veh42" vType="veh_passenger" speedFactor="1.09" vaporized=""/>
    <tripinfo id="veh67" depart="61.00" departLane="749313693#0_1" departPos="5.10" departSpeed="25.41" departDelay="0.71" arrival="82.00" arrivalLane="978400260#2_1" arrivalPos="50.09" arrivalSpeed="24.61" duration="21.00" routeLength="508.49" waitingTime="0.00" waitingCount="0" stopTime="0.00" timeLoss="0.59" rerouteNo="1" devices="tripinfo_veh67 routing_veh67" vType="veh_passenger" speedFactor="0.91" vaporized=""/>
    <tripinfo id="veh71" depart="64.00" departLane="749313693#0_0" departPos="5.10" departSpeed="27.03" departDelay="0.11" arrival="82.00" arrivalLane="563175146#0_0" arrivalPos="187.82" arrivalSpeed="26.45" duration="18.00" routeLength="376.11" waitingTime="0.00" waitingCount="0" stopTime="0.00" timeLoss="2.51" rerouteNo="0" devices="tripinfo_veh71 routing_veh71" vType="veh_passenger" speedFactor="0.97" vaporized=""/>
    <tripinfo id="veh72" depart="65.00" departLane="749313693#0_0" departPos="5.10" departSpeed="25.17" departDelay="0.21" arrival="84.00" arrivalLane="563175146#0_0" arrivalPos="187.82" arrivalSpeed="25.65" duration="19.00" routeLength="376.11" waitingTime="0.00" waitingCount="0" stopTime="0.00" timeLoss="3.01" rerouteNo="0" devices="tripinfo_veh72 routing_veh72" vType="veh_passenger" speedFactor="0.94" vaporized=""/>
    <tripinfo id="veh79" depart="72.00" departLane="749313693#0_0" departPos="5.10" departSpeed="30.19" departDelay="0.92" arrival="90.00" arrivalLane="978400260#2_0" arrivalPos="50.09" arrivalSpeed="30.01" duration="18.00" routeLength="508.49" waitingTime="0.00" waitingCount="0" stopTime="0.00" timeLoss="0.83" rerouteNo="1" devices="tripinfo_veh79 routing_veh79" vType="veh_passenger" speedFactor="1.09" vaporized=""/>
    <tripinfo id="veh31" depart="28.00" departLane="362347492_0" departPos="5.10" departSpeed="32.07" departDelay="0.11" arrival="91.00" arrivalLane="-359247809#2_0" arrivalPos="69.06" arrivalSpeed="17.38" duration="63.00" routeLength="573.01" waitingTime="16.00" waitingCount="2" stopTime="0.00" timeLoss="43.32" rerouteNo="1" devices="tripinfo_veh31 routing_veh31" vType="veh_passenger" speedFactor="1.15" vaporized=""/>
    <tripinfo id="veh50" depart="45.00" departLane="362347492_1" departPos="5.10" departSpeed="23.75" departDelay="0.01" arrival="91.00" arrivalLane="978400303#0_3" arrivalPos="236.03" arrivalSpeed="22.95" duration="46.00" routeLength="494.91" waitingTime="9.00" waitingCount="2" stopTime="0.00" timeLoss="24.37" rerouteNo="1" devices="tripinfo_veh50 routing_veh50" vType="veh_passenger" speedFactor="0.85" vaporized=""/>
    <tripinfo id="veh44" depart="40.00" departLane="362347492_0" departPos="5.10" departSpeed="28.99" departDelay="0.41" arrival="92.00" arrivalLane="978400303#4_1" arrivalPos="38.36" arrivalSpeed="28.40" duration="52.00" routeLength="547.73" waitingTime="12.00" waitingCount="2" stopTime="0.00" timeLoss="32.48" rerouteNo="1" devices="tripinfo_veh44 routing_veh44" vType="veh_passenger" speedFactor="1.04" vaporized=""/>
    <tripinfo id="veh57" depart="52.00" departLane="362347492_1" departPos="5.10" departSpeed="31.74" departDelay="0.71" arrival="94.00" arrivalLane="978400303#4_2" arrivalPos="38.36" arrivalSpeed="27.92" duration="42.00" routeLength="547.73" waitingTime="6.00" waitingCount="1" stopTime="0.00" timeLoss="24.17" rerouteNo="1" devices="tripinfo_veh57 routing_veh57" vType="veh_passenger" speedFactor="1.14" vaporized=""/>
    <tripinfo id="veh86" depart="78.00" departLane="749313693#0_0" departPos="5.10" departSpeed="27.83" departDelay="0.62" arrival="97.00" arrivalLane="563175146#0_0" arrivalPos="187.82" arrivalSpeed="27.15" duration="19.00" routeLength="376.11" waitingTime="0.00" waitingCount="0" stopTime="0.00" timeLoss="3.36" rerouteNo="0" devices="tripinfo_veh86 routing_veh86" vType="veh_passenger" speedFactor="1.00" vaporized=""/>
    <tripinfo id="veh54" depart="49.00" departLane="362347492_0" departPos="5.10" departSpeed="27.87" departDelay="0.41" arrival="98.00" arrivalLane="978400260#2_0" arrivalPos="50.09" arrivalSpeed="27.85" duration="49.00" routeLength="497.42" waitingTime="7.00" waitingCount="3" stopTime="0.00" timeLoss="30.35" rerouteNo="1" devices="tripinfo_veh54 routing_veh54" vType="veh_passenger" speedFactor="1.00" vaporized=""/>
    <tripinfo id="veh76" depart="71.00" departLane="757373594_3" departPos="5.10" departSpeed="0.00" departDelay="2.62" arrival="100.00" arrivalLane="978400303#4_3" arrivalPos="38.36" arrivalSpeed="28.30" duration="29.00" routeLength="417.72" waitingTime="0.00" waitingCount="0" stopTime="0.00" timeLoss="13.95" rerouteNo="1" devices="tripinfo_veh76 routing_veh76" vType="veh_passenger" speedFactor="1.03" vaporized=""/>
    <tripinfo id="veh89" depart="81.00" departLane="749313693#0_1" departPos="5.10" departSpeed="28.39" departDelay="0.92" arrival="100.00" arrivalLane="978400260#2_1" arrivalPos="50.09" arrivalSpeed="28.34" duration="19.00" routeLength="508.49" waitingTime="0.00" waitingCount="0" stopTime="0.00" timeLoss="0.59" rerouteNo="1" devices="tripinfo_veh89 routing_veh89" vType="veh_passenger" speedFactor="1.02" vaporized=""/>
    <tripinfo id="veh49" depart="45.00" departLane="362347492_0" departPos="5.10" departSpeed="23.62" departDelay="0.91" arrival="101.00" arrivalLane="978400303#4_1" arrivalPos="38.36" arrivalSpeed="23.24" duration="56.00" routeLength="547.73" waitingTime="11.00" waitingCount="3" stopTime="0.00" timeLoss="32.72" rerouteNo="1" devices="tripinfo_veh49 routing_veh49" vType="veh_passenger" speedFactor="0.85" vaporized=""/>
    <tripinfo id="veh73" depart="66.00" departLane="362347492_0" departPos="5.10" departSpeed="29.33" departDelay="0.32" arrival="101.00" arrivalLane="978400303#4_2" arrivalPos="38.36" arrivalSpeed="28.80" duration="35.00" routeLength="547.73" waitingTime="1.00" waitingCount="1" stopTime="0.00" timeLoss="15.49" rerouteNo="1" devices="tripinfo_veh73 routing_veh73" vType="veh_passenger" speedFactor="1.06" vaporized=""/>
    <tripinfo id="veh90" depart="81.00" departLane="757373594_2" departPos="5.10" departSpeed="0.00" departDelay="0.02" arrival="103.00" arrivalLane="978400303#4_2" arrivalPos="38.36" arrivalSpeed="27.68" duration="22.00" routeLength="417.72" waitingTime="0.00" waitingCount="0" stopTime="0.00" timeLoss="7.12" rerouteNo="1" devices="tripinfo_veh90 routing_veh90" vType="veh_passenger" speedFactor="1.02" vaporized=""/>
    <tripinfo id="veh61" depart="55.00" departLane="362347492_0" departPos="5.10" departSpeed="31.09" departDelay="0.11" arrival="105.00" arrivalLane="978400260#2_0" arrivalPos="50.09" arrivalSpeed="30.29" duration="50.00" routeLength="497.42" waitingTime="1.00" waitingCount="1" stopTime="0.00" timeLoss="32.79" rerouteNo="1" devices="tripinfo_veh61 routing_veh61" vType="veh_passenger" speedFactor="1.12" vaporized=""/>
    <tripinfo id="veh85" depart="77.00" departLane="362347492_1" departPos="5.10" departSpeed="27.11" departDelay="0.52" arrival="107.00" arrivalLane="978400303#4_3" arrivalPos="38.36" arrivalSpeed="26.20" duration="30.00" routeLength="547.73" waitingTime="0.00" waitingCount="0" stopTime="0.00" timeLoss="9.13" rerouteNo="1" devices="tripinfo_veh85 routing_veh85" vType="veh_passenger" speedFactor="0.98" vaporized=""/>
    <tripinfo id="veh82" depart="74.00" departLane="362347492_0" departPos="5.10" departSpeed="28.25" departDelay="0.22" arrival="108.00" arrivalLane="978400260#2_0" arrivalPos="50.09" arrivalSpeed="28.10" duration="34.00" routeLength="497.42" waitingTime="0.00" waitingCount="0" stopTime="0.00" timeLoss="14.48" rerouteNo="1" devices="tripinfo_veh82 routing_veh82" vType="veh_passenger" speedFactor="1.02" vaporized=""/>
    <tripinfo id="veh88" depart="80.00" departLane="749662139_0" departPos="5.10" departSpeed="0.00" departDelay="0.82" arrival="108.00" arrivalLane="978400303#4_1" arrivalPos="38.36" arrivalSpeed="26.93" duration="28.00" routeLength="438.72" waitingTime="0.00" waitingCount="0" stopTime="0.00" timeLoss="11.62" rerouteNo="1" devices="tripinfo_veh88 routing_veh88" vType="veh_passenger" speedFactor="1.01" vaporized=""/>
    <tripinfo id="veh93" depart="84.00" departLane="362347492_1" departPos="5.10" departSpeed="25.60" departDelay="0.32" arrival="109.00" arrivalLane="978400303#4_2" arrivalPos="38.36" arrivalSpeed="25.22" duration="25.00" routeLength="547.73" waitingTime="0.00" waitingCount="0" stopTime="0.00" timeLoss="2.68" rerouteNo="1" devices="tripinfo_veh93 routing_veh93" vType="veh_passenger" speedFactor="0.92" vaporized=""/>
    <tripinfo id="veh101" depart="91.00" departLane="757092064#0_1" departPos="5.10" departSpeed="0.00" departDelay="0.12" arrival="109.00" arrivalLane="978400260#2_1" arrivalPos="50.09" arrivalSpeed="25.40" duration="18.00" routeLength="290.21" waitingTime="0.00" waitingCount="0" stopTime="0.00" timeLoss="6.76" rerouteNo="1" devices="tripinfo_veh101 routing_veh101" vType="veh_passenger" speedFactor="0.96" vaporized=""/>
    <tripinfo id="veh35" depart="32.00" departLane="362347492_0" departPos="5.10" departSpeed="28.33" departDelay="0.51" arrival="110.00" arrivalLane="359247809#0_0" arrivalPos="69.12" arrivalSpeed="15.92" duration="78.00" routeLength="646.80" waitingTime="18.00" waitingCount="2" stopTime="0.00" timeLoss="52.27" rerouteNo="1" devices="tripinfo_veh35 routing_veh35" vType="veh_passenger" speedFactor="1.02" vaporized=""/>
    <tripinfo id="veh91" depart="82.00" departLane="362347492_0" departPos="5.10" departSpeed="24.77" departDelay="0.12" arrival="110.00" arrivalLane="978400303#4_1" arrivalPos="38.36" arrivalSpeed="23.51" duration="28.00" routeLength="547.73" waitingTime="0.00" waitingCount="0" stopTime="0.00" timeLoss="5.74" rerouteNo="1" devices="tripinfo_veh91 routing_veh91" vType="veh_passenger" speedFactor="0.89" vaporized=""/>
    <tripinfo id="veh100" depart="90.00" departLane="362347492_1" departPos="5.10" departSpeed="29.59" departDelay="0.02" arrival="110.00" arrivalLane="978400303#4_2" arrivalPos="38.36" arrivalSpeed="28.82" duration="20.00" routeLength="547.73" waitingTime="0.00" waitingCount="0" stopTime="0.00" timeLoss="1.14" rerouteNo="1" devices="tripinfo_veh100 routing_veh100" vType="veh_passenger" speedFactor="1.06" vaporized=""/>
    <tripinfo id="veh55" depart="50.00" departLane="362347492_0" departPos="5.10" departSpeed="25.49" departDelay="0.51" arrival="115.00" arrivalLane="-359247809#2_0" arrivalPos="69.06" arrivalSpeed="17.52" duration="65.00" routeLength="573.01" waitingTime="7.00" waitingCount="3" stopTime="0.00" timeLoss="42.70" rerouteNo="1" devices="tripinfo_veh55 routing_veh55" vType="veh_passenger" speedFactor="1.00" vaporized=""/>
    <tripinfo id="veh109" depart="99.00" departLane="362347492_1" departPos="5.10" departSpeed="26.66" departDelay="0.92" arrival="121.00" arrivalLane="978400303#4_2" arrivalPos="38.36" arrivalSpeed="26.53" duration="22.00" routeLength="547.73" waitingTime="0.00" waitingCount="0" stopTime="0.00" timeLoss="0.48" rerouteNo="1" devices="tripinfo_veh109 routing_veh109" vType="veh_passenger" speedFactor="0.96" vaporized=""/>
    <tripinfo id="veh112" depart="102.00" departLane="749662140#0_1" departPos="5.10" departSpeed="0.00" departDelay="1.22" arrival="122.00" arrivalLane="978400303#4_1" arrivalPos="38.36" arrivalSpeed="30.49" duration="20.00" routeLength="399.07" waitingTime="0.00" waitingCount="0" stopTime="0.00" timeLoss="6.57" rerouteNo="1" devices="tripinfo_veh112 routing_veh112" vType="veh_passenger" speedFactor="1.10" vaporized=""/>
    <tripinfo id="veh103" depart="94.00" departLane="749662139_0" departPos="5.10" departSpeed="0.00" departDelay="1.32" arrival="125.00" arrivalLane="-359247809#2_0" arrivalPos="69.06" arrivalSpeed="16.94" duration="31.00" routeLength="464.00" waitingTime="0.00" waitingCount="0" stopTime="0.00" timeLoss="11.99" rerouteNo="1" devices="tripinfo_veh103 routing_veh103" vType="veh_passenger" speedFactor="0.95" vaporized=""/>
    <tripinfo id="veh99" depart="90.00" departLane="362347492_0" departPos="5.10" departSpeed="30.48" departDelay="0.92" arrival="128.00" arrivalLane="359247809#0_0" arrivalPos="69.12" arrivalSpeed="17.18" duration="38.00" routeLength="646.80" waitingTime="0.00" waitingCount="0" stopTime="0.00" timeLoss="13.73" rerouteNo="1" devices="tripinfo_veh99 routing_veh99" vType="veh_passenger" speedFactor="1.10" vaporized=""/>
    <tripinfo id="veh116" depart="105.00" departLane="362347492_0" departPos="5.10" departSpeed="32.70" departDelay="0.62" arrival="128.00" arrivalLane="978400303#4_1" arrivalPos="38.36" arrivalSpeed="20.79" duration="23.00" routeLength="547.73" waitingTime="0.00" waitingCount="0" stopTime="0.00" timeLoss="5.91" rerouteNo="1" devices="tripinfo_veh116 routing_veh116" vType="veh_passenger" speedFactor="1.18" vaporized=""/>
    <tripinfo id="veh105" depart="95.00" departLane="362347492_0" departPos="5.10" departSpeed="28.24" departDelay="0.52" arrival="137.00" arrivalLane="359247809#0_0" arrivalPos="69.12" arrivalSpeed="16.47" duration="42.00" routeLength="646.80" waitingTime="0.00" waitingCount="0" stopTime="0.00" timeLoss="16.65" rerouteNo="1" devices="tripinfo_veh105 routing_veh105" vType="veh_passenger" speedFactor="1.07" vaporized=""/>
    <tripinfo id="veh122" depart="110.00" departLane="749313693#0_1" departPos="5.10" departSpeed="28.65" departDelay="0.23" arrival="139.00" arrivalLane="978400260#2_1" arrivalPos="50.09" arrivalSpeed="27.37" duration="29.00" routeLength="508.49" waitingTime="0.00" waitingCount="0" stopTime="0.00" timeLoss="10.93" rerouteNo="1" devices="tripinfo_veh122 routing_veh122" vType="veh_passenger" speedFactor="1.03" vaporized=""/>
    <tripinfo id="veh107" depart="97.00" departLane="362347492_0" departPos="5.10" departSpeed="27.15" departDelay="0.72" arrival="141.00" arrivalLane="359247809#0_0" arrivalPos="69.12" arrivalSpeed="16.45" duration="44.00" routeLength="646.80" waitingTime="0.00" waitingCount="0" stopTime="0.00" timeLoss="17.66" rerouteNo="1" devices="tripinfo_veh107 routing_veh107" vType="veh_passenger" speedFactor="1.03" vaporized=""/>
    <tripinfo id="veh121" depart="109.00" departLane="362347492_0" departPos="5.10" departSpeed="30.65" departDelay="0.13" arrival="146.00" arrivalLane="359247809#0_0" arrivalPos="69.12" arrivalSpeed="14.83" duration="37.00" routeLength="646.80" waitingTime="0.00" waitingCount="0" stopTime="0.00" timeLoss="12.53" rerouteNo="1" devices="tripinfo_veh121 routing_veh121" vType="veh_passenger" speedFactor="1.10" vaporized=""/>
    <tripinfo id="veh123" depart="111.00" departLane="362347492_1" departPos="5.10" departSpeed="28.43" departDelay="0.33" arrival="147.00" arrivalLane="978400303#4_2" arrivalPos="38.36" arrivalSpeed="28.01" duration="36.00" routeLength="547.73" waitingTime="3.00" waitingCount="1" stopTime="0.00" timeLoss="16.35" rerouteNo="1" devices="tripinfo_veh123 routing_veh123" vType="veh_passenger" speedFactor="1.02" vaporized=""/>